
    -----------------------------------------------------------------------
          Psi4: An Open-Source Ab Initio Electronic Structure Package
                               Psi4 1.1 release

                         Git: Rev {HEAD} add49b9 


    R. M. Parrish, L. A. Burns, D. G. A. Smith, A. C. Simmonett,
    A. E. DePrince III, E. G. Hohenstein, U. Bozkaya, A. Yu. Sokolov,
    R. Di Remigio, R. M. Richard, J. F. Gonthier, A. M. James,
    H. R. McAlexander, A. Kumar, M. Saitow, X. Wang, B. P. Pritchard,
    P. Verma, H. F. Schaefer III, K. Patkowski, R. A. King, E. F. Valeev,
    F. A. Evangelista, J. M. Turney, T. D. Crawford, and C. D. Sherrill,
    J. Chem. Theory Comput. in press (2017).
    (doi: 10.1021/acs.jctc.7b00174)

    -----------------------------------------------------------------------


    Psi4 started on: Wednesday, 06 December 2017 09:29PM

    Process ID:  11928
    PSIDATADIR: /anaconda3/share/psi4
    Memory:     500.0 MiB
    Threads:    1
    
  ==> Input File <==

--------------------------------------------------------------------------
"""This is a template for psi4 input format."""
import numpy
import sys

from openfermion.config import *
from openfermion.ops._interaction_tensor import (one_body_basis_change,
                                              two_body_basis_change)
from openfermion.hamiltonians import MolecularData
from numpy import array

sys.path.append('/Users/wadejong/Desktop/Quantum-Computing/OpenFermion/OpenFermion-Psi4/openfermionpsi4')
from _psi4_conversion_functions import *

# Set number of threads in PSI4
set_num_threads(8)

# Set memory that job can use in megabytes.
memory 8000 mb

# Initialize molecular data.
_description = 'ethylene_0.31416'
if _description == 'None':
    _description = None
molecule = MolecularData([['C', array([ 0.      ,  0.      ,  0.673055])], ['C', array([ 0.      ,  0.      , -0.673055])], ['H', array([ 0.      ,  0.934981,  1.246807])], ['H', array([ 0.      , -0.934981,  1.246807])], ['H', array([ 0.28892502, -0.88921977, -1.246807  ])], ['H', array([-0.28892502,  0.88921977, -1.246807  ])]],
                         'DZP',
                         1,
                         0,
                         _description,
                          filename='/Users/wadejong/Desktop/QCQCSiddiqi/8_Qubit_Simulation/data/H4-C2_DZP_singlet_ethylene_0.31416')

# Set molecular geometry and symmetry.
molecule mol {
C 0.0 0.0 0.673055
C 0.0 0.0 -0.673055
H 0.0 0.934981 1.246807
H 0.0 -0.934981 1.246807
H 0.2889250184176827 -0.8892197726621589 -1.246807
H -0.2889250184176827 0.8892197726621589 -1.246807
symmetry c1
}
mol.set_multiplicity(1)
mol.set_molecular_charge(0)

# Set reference and guess.
if molecule.multiplicity == 1:
    set reference rhf
    set guess sad
    set sad_frac_occ true
else:
    set reference rohf
    set guess sad
    set sad_frac_occ true

# Set global parameters of calculation.
set globals {
    basis DZP
    freeze_core false
    fail_on_maxiter true
    df_scf_guess false
    guess sad
    sad_frac_occ true
    opdm false
    tpdm false
    soscf true
    scf_type pk
    diis true
    maxiter 1e6
    num_amps_print 1e6
    r_convergence 1e-7
    d_convergence 1e-7
    e_convergence 1e-7
    ints_tolerance EQUALITY_TOLERANCE
    damping_percentage 0
}

# Run self-consistent field (SCF) calculation.
if True:
    try:

        hf_energy, hf_wavefunction = energy('scf', return_wfn=True)
        scf_wfn = hf_wavefunction
        if True:
            print('Hartree-Fock energy for {} ({} electrons) is {}.'.format(
                molecule.name, molecule.n_electrons, hf_energy))
    except:
        if True:
            print('WARNING: SCF calculation failed.')
        else:
            raise
    else:
        # Get orbitals and Fock matrix.
        molecule.hf_energy = hf_energy
        molecule.nuclear_repulsion = mol.nuclear_repulsion_energy()
        molecule.canonical_orbitals = numpy.asarray(hf_wavefunction.Ca())
        molecule.n_orbitals = molecule.canonical_orbitals.shape[0]
        molecule.n_qubits = 2 * molecule.n_orbitals
        molecule.orbital_energies = numpy.asarray(hf_wavefunction.epsilon_a())
        molecule.fock_matrix = numpy.asarray(hf_wavefunction.Fa())

        # Get integrals using MintsHelper.
        mints = MintsHelper(hf_wavefunction.basisset())
        molecule.one_body_integrals = one_body_basis_change(
            numpy.asarray(mints.ao_kinetic()), molecule.canonical_orbitals)
        molecule.one_body_integrals += one_body_basis_change(
            numpy.asarray(mints.ao_potential()), molecule.canonical_orbitals)
        two_body_integrals = numpy.asarray(mints.ao_eri())
        two_body_integrals.reshape((molecule.n_orbitals, molecule.n_orbitals,
                                    molecule.n_orbitals, molecule.n_orbitals))
        two_body_integrals = numpy.einsum('psqr', two_body_integrals)
        two_body_integrals = two_body_basis_change(
            two_body_integrals, molecule.canonical_orbitals)
        molecule.two_body_integrals = two_body_integrals
        molecule.save()


# Perform MP2 energy calculation if there are at least two electrons.
if True:
    try:
        assert molecule.n_electrons > 1
        mp2_energy = energy('mp2',ref_wfn=scf_wfn)
        if True:
            print('MP2 energy for {} ({} electrons) is {}.'.format(
                molecule.name, molecule.n_electrons, mp2_energy))
    except:
        if True:
            print('WARNING: MP2 calculation failed.')
        else:
            raise
    else:
        molecule.mp2_energy = mp2_energy
        molecule.save()


# Perform configuration interaction singles and doubles (CISD) calculation.
if True:
    set qc_module detci
    try:
        cisd_energy, cisd_wavefunction = energy('cisd', ref_wfn=scf_wfn, return_wfn=True)
        if True:
            print('CISD energy for {} ({} electrons) is {}.'.format(
                molecule.name, molecule.n_electrons, cisd_energy))
    except:
        if True:
            print('WARNING: CISD calculation failed.')
        else:
            raise
    else:
        # For the functions below, "a" and "b" refer to "up and "down" spins.
        molecule.cisd_energy = cisd_energy

        # Get 1-RDM from CISD calculation.
        """cisd_one_rdm_a = numpy.array(cisd_wavefunction.get_opdm(
            0, 0, 'A', True)).reshape(molecule.n_orbitals, molecule.n_orbitals)
        cisd_one_rdm_b = numpy.array(cisd_wavefunction.get_opdm(
            0, 0, 'B', True)).reshape(molecule.n_orbitals, molecule.n_orbitals)

        # Get 2-RDM from CISD calculation.
        cisd_two_rdm_aa = numpy.array(cisd_wavefunction.get_tpdm(
            'AA', False)).reshape(molecule.n_orbitals, molecule.n_orbitals,
                                  molecule.n_orbitals, molecule.n_orbitals)
        cisd_two_rdm_ab = numpy.array(cisd_wavefunction.get_tpdm(
            'AB', False)).reshape(molecule.n_orbitals, molecule.n_orbitals,
                                  molecule.n_orbitals, molecule.n_orbitals)
        cisd_two_rdm_bb = numpy.array(cisd_wavefunction.get_tpdm(
            'BB', False)).reshape(molecule.n_orbitals, molecule.n_orbitals,
                                  molecule.n_orbitals, molecule.n_orbitals)

        # Get overall RDMs.
        cisd_one_rdm, cisd_two_rdm = unpack_spatial_rdm(
            cisd_one_rdm_a, cisd_one_rdm_b, cisd_two_rdm_aa,
            cisd_two_rdm_ab, cisd_two_rdm_bb)

        # Store 1-RDM in molecule file, 2-RDM separately in other file.
        molecule.cisd_one_rdm = cisd_one_rdm
        molecule.cisd_two_rdm = cisd_two_rdm
        molecule.save()"""


# Perform exact diagonalization.
if False:
    set qc_module detci
    try:
        fci_energy, fci_wavefunction = energy('fci', ref_wfn=scf_wfn, return_wfn=True)
        if True:
            print('FCI energy for {} ({} electrons) is {}.'.format(
                molecule.name, molecule.n_electrons, fci_energy))
    except:
        if True:
            print('WARNING: FCI calculation failed.')
        else:
            raise
    else:
        # For the functions below, "a" and "b" refer to "up and "down" spins.
        molecule.fci_energy = fci_energy

        # Get 1-RDM from FCI calculation.
        """fci_one_rdm_a = numpy.array(fci_wavefunction.get_opdm(
            0, 0, 'A', True)).reshape(molecule.n_orbitals, molecule.n_orbitals)
        fci_one_rdm_b = numpy.array(fci_wavefunction.get_opdm(
            0, 0, 'B', True)).reshape(molecule.n_orbitals, molecule.n_orbitals)

        # Get 2-RDM from FCI calculation.
        fci_two_rdm_aa = numpy.array(fci_wavefunction.get_tpdm(
            'AA', False)).reshape(molecule.n_orbitals, molecule.n_orbitals,
                                  molecule.n_orbitals, molecule.n_orbitals)
        fci_two_rdm_ab = numpy.array(fci_wavefunction.get_tpdm(
            'AB', False)).reshape(molecule.n_orbitals, molecule.n_orbitals,
                                  molecule.n_orbitals, molecule.n_orbitals)
        fci_two_rdm_bb = numpy.array(fci_wavefunction.get_tpdm(
            'BB', False)).reshape(molecule.n_orbitals, molecule.n_orbitals,
                                  molecule.n_orbitals, molecule.n_orbitals)

        # Get overall RDMs.
        fci_one_rdm, fci_two_rdm = unpack_spatial_rdm(
            fci_one_rdm_a, fci_one_rdm_b,
            fci_two_rdm_aa, fci_two_rdm_ab, fci_two_rdm_bb)

        # Store 1-RDM in molecule file, 2-RDM separately in other file.
        molecule.fci_one_rdm = fci_one_rdm
        molecule.fci_two_rdm = fci_two_rdm
        molecule.save()"""


# Perform coupled cluster singles and doubles (CCSD) calculation.
if True:
    set qc_module ccenergy
    try:
        ccsd_energy = energy('ccsd',ref_wfn=scf_wfn)
        if True:
            print('CCSD energy for {} ({} electrons) is {}.'.format(
                molecule.name, molecule.n_electrons, ccsd_energy))
    except:
        if True:
            print('WARNING: CCSD calculation failed.')
        else:
            raise
    else:
        molecule.ccsd_energy = ccsd_energy

        # Merge CC amplitudes into molecule by parsing
        psi_filename = outfile_name()
        ccsd_amplitudes = parse_psi4_ccsd_amplitudes(
            2 * molecule.n_orbitals,
            molecule.get_n_alpha_electrons(),
            molecule.get_n_beta_electrons(),
            psi_filename)
        molecule.ccsd_amplitudes = ccsd_amplitudes
        molecule.save()
--------------------------------------------------------------------------
  Python driver attempted to set threads to 8.
  Psi4 was compiled without OpenMP, setting threads to 1.

  Memory set to   7.451 GiB by Python driver.

*** tstart() called on Berts-MacBook-Pro.local
*** at Wed Dec  6 21:29:38 2017

   => Loading Basis Set <=

    Name: DZP
    Role: ORBITAL
    Keyword: BASIS
    atoms 1-2 entry C          line    73 file /anaconda3/share/psi4/basis/dzp.gbs 
    atoms 3-6 entry H          line    16 file /anaconda3/share/psi4/basis/dzp.gbs 


         ---------------------------------------------------------
                                   SCF
            by Justin Turney, Rob Parrish, and Andy Simmonett
                              RHF Reference
                        1 Threads,   7629 MiB Core
         ---------------------------------------------------------

  ==> Geometry <==

    Molecular point group: c1
    Full point group: D2

    Geometry (in Angstrom), charge = 0, multiplicity = 1:

       Center              X                  Y                   Z               Mass       
    ------------   -----------------  -----------------  -----------------  -----------------
           C          0.000000000000     0.000000000000     0.673055000000    12.000000000000
           C          0.000000000000     0.000000000000    -0.673055000000    12.000000000000
           H          0.146263252558     0.923469832378     1.246807000000     1.007825032070
           H         -0.146263252558    -0.923469832378     1.246807000000     1.007825032070
           H          0.146263252558    -0.923469832378    -1.246807000000     1.007825032070
           H         -0.146263252558     0.923469832378    -1.246807000000     1.007825032070

  Running in c1 symmetry.

  Rotational constants: A =      4.78350  B =      0.97867  C =      0.81926 [cm^-1]
  Rotational constants: A = 143405.72603  B =  29339.71574  C =  24560.71829 [MHz]
  Nuclear repulsion =   33.005539532330886

  Charge       = 0
  Multiplicity = 1
  Electrons    = 16
  Nalpha       = 8
  Nbeta        = 8

  ==> Algorithm <==

  SCF Algorithm Type is PK.
  DIIS enabled.
  MOM disabled.
  Fractional occupation disabled.
  Guess Type is SAD.
  Energy threshold   = 1.00e-07
  Density threshold  = 1.00e-07
  Integral threshold = 0.00e+00

  ==> Primary Basis <==

  Basis Set: DZP
    Blend: DZP
    Number of shells: 26
    Number of basis function: 52
    Number of Cartesian functions: 52
    Spherical Harmonics?: false
    Max angular momentum: 2

  ==> Pre-Iterations <==

   -------------------------------------------------------
    Irrep   Nso     Nmo     Nalpha   Nbeta   Ndocc  Nsocc
   -------------------------------------------------------
     A         52      52       0       0       0       0
   -------------------------------------------------------
    Total      52      52       8       8       8       0
   -------------------------------------------------------

  ==> Integral Setup <==

  Using in-core PK algorithm.
   Calculation information:
      Number of atoms:                   6
      Number of AO shells:              26
      Number of primitives:             50
      Number of atomic orbitals:        52
      Number of basis functions:        52

      Integral cutoff                 1.00e-12
      Number of threads:                 1

  Performing in-core PK
  Using 1900262 doubles for integral storage.
  We computed 61760 shell quartets total.
  Whereas there are 61776 unique shell quartets.
  ==> DiskJK: Disk-Based J/K Matrices <==

    J tasked:                  Yes
    K tasked:                  Yes
    wK tasked:                  No
    Memory (MB):              5722
    Schwarz Cutoff:          1E-12

    OpenMP threads:              1
  Minimum eigenvalue in the overlap matrix is 4.8951713186E-03.
  Using Symmetric Orthogonalization.

  SCF Guess: Superposition of Atomic Densities via on-the-fly atomic UHF.

  ==> Iterations <==

                        Total Energy        Delta E     RMS |[F,P]|

   @RHF iter   0:   -69.16285224632161   -6.91629e+01   1.01506e-01 
   @RHF iter   1:   -74.34677398018408   -5.18392e+00   3.99132e-02 
   @RHF iter   2:   -77.22017340202289   -2.87340e+00   2.37798e-02 DIIS/DAMP
   @RHF iter   3:   -78.03078223962656   -8.10609e-01   2.34012e-03 DIIS/DAMP
   @RHF iter   4:   -78.04136812099125   -1.05859e-02   3.87945e-04 SOSCF, nmicro = 4/DAMP
   @RHF iter   5:   -78.04184221907084   -4.74098e-04   1.90539e-06 SOSCF, nmicro = 4/DAMP
   @RHF iter   6:   -78.04184222696506   -7.89422e-09   3.11989e-09 SOSCF, conv/DAMP

  ==> Post-Iterations <==

    Orbital Energies (a.u.)
    -----------------------

    Doubly Occupied:                                                      

       1A    -11.245043     2A    -11.243487     3A     -1.027065  
       4A     -0.787992     5A     -0.634294     6A     -0.582193  
       7A     -0.509684     8A     -0.364139  

    Virtual:                                                              

       9A      0.141379    10A      0.257577    11A      0.290215  
      12A      0.362027    13A      0.388031    14A      0.412974  
      15A      0.444550    16A      0.473348    17A      0.485625  
      18A      0.610483    19A      0.649070    20A      0.666331  
      21A      0.824805    22A      1.026687    23A      1.199691  
      24A      1.203511    25A      1.320088    26A      1.541512  
      27A      1.549382    28A      1.587573    29A      1.657258  
      30A      1.932982    31A      2.066374    32A      2.068752  
      33A      2.081237    34A      2.150492    35A      2.210421  
      36A      2.428577    37A      2.478522    38A      2.515036  
      39A      2.631178    40A      2.786042    41A      2.796105  
      42A      2.925226    43A      2.952210    44A      3.198282  
      45A      3.337156    46A      3.499478    47A      3.596884  
      48A      3.894413    49A      4.213446    50A      4.546134  
      51A     27.626009    52A     27.662788  

    Final Occupation by Irrep:
              A 
    DOCC [     8 ]

  Energy converged.

  @RHF Final Energy:   -78.04184222696506

   => Energetics <=

    Nuclear Repulsion Energy =             33.0055395323308858
    One-Electron Energy =                -169.3069705007841890
    Two-Electron Energy =                  58.2595887414882441
    DFT Exchange-Correlation Energy =       0.0000000000000000
    Empirical Dispersion Energy =           0.0000000000000000
    PCM Polarization Energy =               0.0000000000000000
    EFP Energy =                            0.0000000000000000
    Total Energy =                        -78.0418422269650591



Properties will be evaluated at   0.000000,   0.000000,   0.000000 Bohr

Properties computed using the SCF density matrix

  Nuclear Dipole Moment: (a.u.)
     X:     0.0000      Y:     0.0000      Z:     0.0000

  Electronic Dipole Moment: (a.u.)
     X:    -0.0000      Y:     0.0000      Z:     0.0000

  Dipole Moment: (a.u.)
     X:    -0.0000      Y:     0.0000      Z:     0.0000     Total:     0.0000

  Dipole Moment: (Debye)
     X:    -0.0000      Y:     0.0000      Z:     0.0000     Total:     0.0000


*** tstop() called on Berts-MacBook-Pro.local at Wed Dec  6 21:29:39 2017
Module time:
	user time   =       0.38 seconds =       0.01 minutes
	system time =       0.05 seconds =       0.00 minutes
	total time  =          1 seconds =       0.02 minutes
Total time:
	user time   =       0.38 seconds =       0.01 minutes
	system time =       0.05 seconds =       0.00 minutes
	total time  =          1 seconds =       0.02 minutes

*** tstart() called on Berts-MacBook-Pro.local
*** at Wed Dec  6 21:29:43 2017


  //>>>>>>>>>>>>>>>>>>>>>>>>>>>>>>>>>>>//
  //               DFMP2               //
  //<<<<<<<<<<<<<<<<<<<<<<<<<<<<<<<<<<<//

   => Loading Basis Set <=

    Name: (DZP AUX)
    Role: RIFIT
    Keyword: DF_BASIS_MP2
    atoms 1-2 entry C          line   269 file /anaconda3/share/psi4/basis/def2-qzvpp-ri.gbs 
    atoms 3-6 entry H          line    23 file /anaconda3/share/psi4/basis/def2-qzvpp-ri.gbs 

	 --------------------------------------------------------
	                          DF-MP2                         
	      2nd-Order Density-Fitted Moller-Plesset Theory     
	              RMP2 Wavefunction,   1 Threads             
	                                                         
	        Rob Parrish, Justin Turney, Andy Simmonett,      
	           Ed Hohenstein, and C. David Sherrill          
	 --------------------------------------------------------

   => Auxiliary Basis Set <=

  Basis Set: (DZP AUX)
    Blend: DEF2-QZVPP-RI
    Number of shells: 130
    Number of basis function: 506
    Number of Cartesian functions: 666
    Spherical Harmonics?: true
    Max angular momentum: 5

	 --------------------------------------------------------
	                 NBF =    52, NAUX =   506
	 --------------------------------------------------------
	   CLASS    FOCC     OCC    AOCC    AVIR     VIR    FVIR
	   PAIRS       0       8       8      44      44       0
	 --------------------------------------------------------

	-----------------------------------------------------------
	 ==================> DF-MP2 Energies <==================== 
	-----------------------------------------------------------
	 Reference Energy          =     -78.0418422269650591 [Eh]
	 Singles Energy            =      -0.0000000000000000 [Eh]
	 Same-Spin Energy          =      -0.0603214867706053 [Eh]
	 Opposite-Spin Energy      =      -0.2438772402872029 [Eh]
	 Correlation Energy        =      -0.3041987270578081 [Eh]
	 Total Energy              =     -78.3460409540228682 [Eh]
	-----------------------------------------------------------
	 ================> DF-SCS-MP2 Energies <================== 
	-----------------------------------------------------------
	 SCS Same-Spin Scale       =       0.3333333333333333 [-]
	 SCS Opposite-Spin Scale   =       1.2000000000000000 [-]
	 SCS Same-Spin Energy      =      -0.0201071622568684 [Eh]
	 SCS Opposite-Spin Energy  =      -0.2926526883446435 [Eh]
	 SCS Correlation Energy    =      -0.3127598506015119 [Eh]
	 SCS Total Energy          =     -78.3546020775665681 [Eh]
	-----------------------------------------------------------


*** tstop() called on Berts-MacBook-Pro.local at Wed Dec  6 21:29:43 2017
Module time:
	user time   =       0.28 seconds =       0.00 minutes
	system time =       0.05 seconds =       0.00 minutes
	total time  =          0 seconds =       0.00 minutes
Total time:
	user time   =       4.60 seconds =       0.08 minutes
	system time =       0.24 seconds =       0.00 minutes
	total time  =          5 seconds =       0.08 minutes
 MINTS: Wrapper to libmints.
   by Justin Turney

   Calculation information:
      Number of threads:                 1
      Number of atoms:                   6
      Number of AO shells:              26
      Number of SO shells:              26
      Number of primitives:             50
      Number of atomic orbitals:        52
      Number of basis functions:        52

      Number of irreps:                  1
      Integral cutoff                 0.00e+00
      Number of functions per irrep: [  52 ]

 OEINTS: Overlap, kinetic, potential, dipole, and quadrupole integrals
         stored in file 35.

      Computing two-electron integrals...done
      Computed 840937 non-zero two-electron integrals.
        Stored in file 33.


         ---------------------------------------------------------
                          Configuration Interaction
                            (a 'D E T C I' module)

                 C. David Sherrill, Daniel G. A. Smith, and
                              Matt L. Leininger
         ---------------------------------------------------------


   ==> Parameters <==

    EX LEVEL       =        2      H0 BLOCKSIZE  =     1000
    VAL EX LEVEL   =        0      H0 GUESS SIZE =     1000
    H0COUPLINGSIZE =        0      H0 COUPLING   =       NO
    MAXITER        =       24      NUM PRINT     =       20
    NUM ROOTS      =        1      ICORE         =        1
    PRINT LVL      =        1      FCI           =       NO
    R CONV         = 1.00e-07      MIXED         =      YES
    E CONV         = 1.00e-07      MIXED4        =      YES
    R4S            =       NO      REPL OTF      =       NO
    DIAG METHOD    =      SEM      FOLLOW ROOT   =        0
    PRECONDITIONER = DAVIDSON      UPDATE        = DAVIDSON
    S              =   0.0000      Ms0           =      YES
    GUESS VECTOR   =  H0BLOCK      OPENTYPE      =     NONE
    COLLAPSE SIZE  =        1      HD AVG        = EVANGELISTI
    MAX NUM VECS   =       25      REF SYM       =     AUTO
    IOPEN        =       NO

    EX ALLOW       =  1  1 
    STATE AVERAGE  =  0(1.00) 

   ==> CI Orbital and Space information <==

    RAS1 LVL      =        7      A RAS3 MAX    =        2
    RAS1 MIN      =       14      B RAS3 MAX    =        2
    A RAS1 LVL    =        7      RAS4 LVL      =       52
    A RAS1 MIN    =        6      A RAS4 MAX    =        0
    A RAS1 MAX    =        8      B RAS4 MAX    =        0
    B RAS1 LVL    =        7      RAS4 MAX      =        0
    B RAS1 MIN    =        6      A RAS34 MAX   =        2
    B RAS1 MAX    =        8      B RAS34 MAX   =        2
    RAS3 LVL      =        8      RAS34 MAX     =        2
    RAS3 MAX      =        2
   ------------------------------------
               Space    Total     A
   ------------------------------------
                 Nso       52    52
                 Nmo       52    52
               Ndocc        8     8
               Nsocc        0     0
   ------------------------------------
              CI Spaces
   ------------------------------------
        Dropped DOCC        0     0
                RAS1        8     8
                RAS2        0     0
                RAS3       44    44
                RAS4        0     0
      Active (total)       52    52
        Dropped UOCC        0     0
   ------------------------------------

   ==> Setting up CI strings <==

    There are 26841 alpha and 26841 beta strings
    The CI space requires 177585 (1.78E+05) determinants and 6 blocks

   ==> Transforming CI integrals <==

	Presorting SO-basis two-electron integrals.
	Sorting File: SO Ints (nn|nn) nbuckets = 1
	Transforming the one-electron integrals and constructing Fock matrices
	Starting first half-transformation.
	Sorting half-transformed integrals.
	First half integral transformation complete.
	Starting second half-transformation.
	Two-electron integral transformation complete.

   ==> Starting CI iterations <==

    H0 Block Eigenvalue = -78.07640767

    Simultaneous Expansion Method (Block Davidson Method)
    Using 1 initial trial vectors

     Iter   Root       Total Energy       Delta E      C RMS

   @CI  0:     0    -78.076407667697   -1.1108E+02   1.5407E+00  
   @CI  1:     0    -78.339248537238   -2.6284E-01   1.5273E-01  
   @CI  2:     0    -78.348880186397   -9.6316E-03   4.4196E-02  
   @CI  3:     0    -78.349516205696   -6.3602E-04   9.6203E-03  
   @CI  4:     0    -78.349550158103   -3.3952E-05   2.6385E-03  
   @CI  5:     0    -78.349552041362   -1.8833E-06   5.8033E-04  
   @CI  6:     0    -78.349552150578   -1.0922E-07   1.5780E-04  
   @CI  7:     0    -78.349552157721   -7.1428E-09   3.9701E-05  
   @CI  8:     0    -78.349552158237   -5.1602E-10   1.1019E-05  
   @CI  9:     0    -78.349552158276   -3.8668E-11   2.9433E-06  
   @CI 10:     0    -78.349552158278   -2.2595E-12   5.8142E-07  
    Warning: Norm of correction (root 0) is < 1.0E-13
   @CI 11:     0    -78.349552158278   -9.9476E-14   1.3482E-07  
    Warning: Norm of correction (root 0) is < 1.0E-13
   @CI 12:     0    -78.349552158278   0.0000E+00   2.7952E-08 c

   ==> Energetics <==

    SCF energy =            0.000000000000000
    Total CI energy =     -78.349552158278243

   ==> CISD root 0 information <==

    CISD Root 0 energy =   -78.349552158278243

   The 20 most important determinants:

    *   1   -0.951217  (    0,    0)  1AX 2AX 3AX 4AX 5AX 6AX 7AX 8AX 
    *   2    0.091764  (    1,    1)  1AX 2AX 3AX 4AX 5AX 6AX 7AX 9AX 
    *   3    0.042067  (    1,   73)  1AX 2AX 3AX 4AX 5AX 6AX 7AX 9AA 18AB 
    *   4    0.042067  (   73,    1)  1AX 2AX 3AX 4AX 5AX 6AX 7AX 9AB 18AA 
    *   5    0.027360  (   73,   73)  1AX 2AX 3AX 4AX 5AX 6AX 7AX 18AX 
    *   6    0.027015  (   99,   99)  1AX 2AX 3AX 4AX 5AX 7AX 8AX 21AX 
    *   7    0.025066  (    1,   99)  1AX 2AX 3AX 4AX 5AX 6AA 7AX 8AB 9AA 21AB 
    *   8    0.025066  (   99,    1)  1AX 2AX 3AX 4AX 5AX 6AB 7AX 8AA 9AB 21AA 
    *   9    0.022474  (   65,   65)  1AX 2AX 3AX 4AX 5AX 6AX 7AX 17AX 
    *  10    0.022058  (    0, 2202)  1AX 2AX 3AX 4AX 5AX 6AA 7AX 8AA 9AB 21AB 
    *  11    0.022058  ( 2202,    0)  1AX 2AX 3AX 4AX 5AX 6AB 7AX 8AB 9AA 21AA 
    *  12    0.021074  (   26,   26)  1AX 2AX 3AX 4AX 5AX 6AX 8AX 12AX 
    *  13    0.020788  (   28,   28)  1AX 2AX 3AX 4AX 6AX 7AX 8AX 12AX 
    *  14    0.019242  (   73,   99)  1AX 2AX 3AX 4AX 5AX 6AA 7AX 8AB 18AA 21AB 
    *  15    0.019242  (   99,   73)  1AX 2AX 3AX 4AX 5AX 6AB 7AX 8AA 18AB 21AA 
    *  16    0.018260  (    5,    5)  1AX 2AX 3AX 5AX 6AX 7AX 8AX 9AX 
    *  17   -0.017981  (    0,   65)  1AX 2AX 3AX 4AX 5AX 6AX 7AX 8AA 17AB 
    *  18   -0.017981  (   65,    0)  1AX 2AX 3AX 4AX 5AX 6AX 7AX 8AB 17AA 
    *  19    0.017978  (   43,   43)  1AX 2AX 3AX 4AX 5AX 7AX 8AX 14AX 
    *  20    0.016305  (   34,   34)  1AX 2AX 3AX 4AX 5AX 6AX 8AX 13AX 

		 "A good bug is a dead bug" 

			 - Starship Troopers

		 "I didn't write FORTRAN.  That's the problem."

			 - Edward Valeev
 MINTS: Wrapper to libmints.
   by Justin Turney

   Calculation information:
      Number of threads:                 1
      Number of atoms:                   6
      Number of AO shells:              26
      Number of SO shells:              26
      Number of primitives:             50
      Number of atomic orbitals:        52
      Number of basis functions:        52

      Number of irreps:                  1
      Integral cutoff                 0.00e+00
      Number of functions per irrep: [  52 ]

 OEINTS: Overlap, kinetic, potential, dipole, and quadrupole integrals
         stored in file 35.

      Computing two-electron integrals...done
      Computed 840937 non-zero two-electron integrals.
        Stored in file 33.


*** tstart() called on Berts-MacBook-Pro.local
*** at Wed Dec  6 21:30:35 2017


	Wfn Parameters:
	--------------------
	Wavefunction         = CCSD
	Number of irreps     = 1
	Number of MOs        = 52
	Number of active MOs = 52
	AO-Basis             = NONE
	Semicanonical        = false
	Reference            = RHF
	Print Level          = 1

	IRREP	# MOs	# FZDC	# DOCC	# SOCC	# VIRT	# FZVR
	-----	-----	------	------	------	------	------
	 A	   52	    0	    8	    0	    44	    0
	Transforming integrals...
	IWL integrals will be deleted.
	(OO|OO)...
	Presorting SO-basis two-electron integrals.
	Sorting File: SO Ints (nn|nn) nbuckets = 1
	Transforming the one-electron integrals and constructing Fock matrices
	Starting first half-transformation.
	Sorting half-transformed integrals.
	First half integral transformation complete.
	Starting second half-transformation.
	Two-electron integral transformation complete.
	(OO|OV)...
	Starting second half-transformation.
	Two-electron integral transformation complete.
	(OO|VV)...
	Starting second half-transformation.
	Two-electron integral transformation complete.
	(OV|OO)...
	Starting first half-transformation.
	Sorting half-transformed integrals.
	First half integral transformation complete.
	Starting second half-transformation.
	Two-electron integral transformation complete.
	(OV|OV)...
	Starting second half-transformation.
	Two-electron integral transformation complete.
	(OV|VV)...
	Starting second half-transformation.
	Two-electron integral transformation complete.
	(VV|OO)...
	Starting first half-transformation.
	Sorting half-transformed integrals.
	First half integral transformation complete.
	Starting second half-transformation.
	Two-electron integral transformation complete.
	(VV|OV)...
	Starting second half-transformation.
	Two-electron integral transformation complete.
	(VV|VV)...
	Starting second half-transformation.
	Two-electron integral transformation complete.
	Frozen core energy     =      0.00000000000000

	Size of irrep 0 of <ab|cd> integrals:      3.748 (MW) /     29.985 (MB)
	Total:                                     3.748 (MW) /     29.985 (MB)

	Size of irrep 0 of <ia|bc> integrals:      0.681 (MW) /      5.452 (MB)
	Total:                                     0.681 (MW) /      5.452 (MB)

	Size of irrep 0 of tijab amplitudes:       0.124 (MW) /      0.991 (MB)
	Total:                                     0.124 (MW) /      0.991 (MB)

	Nuclear Rep. energy          =     33.00553953233089
	SCF energy                   =    -78.04184222696506
	One-electron energy          =   -169.30697060320000
	Two-electron energy          =     58.25958884390423
	Reference energy             =    -78.04184222696489

*** tstop() called on Berts-MacBook-Pro.local at Wed Dec  6 21:30:36 2017
Module time:
	user time   =       0.28 seconds =       0.00 minutes
	system time =       0.29 seconds =       0.00 minutes
	total time  =          1 seconds =       0.02 minutes
Total time:
	user time   =      56.29 seconds =       0.94 minutes
	system time =       1.15 seconds =       0.02 minutes
	total time  =         58 seconds =       0.97 minutes

*** tstart() called on Berts-MacBook-Pro.local
*** at Wed Dec  6 21:30:36 2017

            **************************
            *                        *
            *        CCENERGY        *
            *                        *
            **************************

    Nuclear Rep. energy (wfn)     =   33.005539532330886
    SCF energy          (wfn)     =  -78.041842226965059
    Reference energy    (file100) =  -78.041842226964889

    Input parameters:
    -----------------
    Wave function   =     CCSD
    Reference wfn   =     RHF
    Brueckner       =     No
    Memory (Mbytes) =     8000.0
    Maxiter         =   1000000
    R_Convergence   =     1.0e-07
    E_Convergence   =     1.0e-07
    Restart         =     Yes
    DIIS            =     Yes
    AO Basis        =     NONE
    ABCD            =     NEW
    Cache Level     =     2
    Cache Type      =     LOW
    Print Level     =     1
    Num. of threads =     1
    # Amps to Print =     1000000
    Print MP2 Amps? =     No
    Analyze T2 Amps =     No
    Print Pair Ener =     No
    Local CC        =     No
    SCS-MP2         =     False
    SCSN-MP2        =     False
    SCS-CCSD        =     False

MP2 correlation energy -0.3042063147609183
                Solving CC Amplitude Equations
                ------------------------------
  Iter             Energy              RMS        T1Diag      D1Diag    New D1Diag    D2Diag
  ----     ---------------------    ---------   ----------  ----------  ----------   --------
     0        -0.304206314760918    0.000e+00    0.000000    0.000000    0.000000    0.157538
     1        -0.324165541272789    5.316e-02    0.006638    0.023361    0.023361    0.173276
     2        -0.334022297010707    2.198e-02    0.008165    0.029555    0.029555    0.191083
     3        -0.335210954584224    7.512e-03    0.009220    0.033798    0.033798    0.198324
     4        -0.335269477470539    2.464e-03    0.009367    0.034558    0.034558    0.201287
     5        -0.335288790361628    4.933e-04    0.009374    0.034611    0.034611    0.201702
     6        -0.335288345159768    1.220e-04    0.009370    0.034603    0.034603    0.201728
     7        -0.335288173890157    3.322e-05    0.009369    0.034598    0.034598    0.201734
     8        -0.335288103648445    1.124e-05    0.009368    0.034597    0.034597    0.201734
     9        -0.335287967934644    3.358e-06    0.009368    0.034597    0.034597    0.201734
    10        -0.335288053144427    9.074e-07    0.009368    0.034597    0.034597    0.201734
    11        -0.335288059416723    2.328e-07    0.009368    0.034597    0.034597    0.201734
    12        -0.335288066210796    5.936e-08    0.009368    0.034597    0.034597    0.201734

    Iterations converged.


    Largest TIA Amplitudes:
              7   8         0.0301257300
              7  19         0.0105570088
              7   7         0.0088212553
              7  10         0.0076751191
              4   3         0.0058630584
              5  21         0.0046412815
              3  13         0.0044453147
              7  28         0.0038575499
              5   5         0.0035394342
              6  34         0.0034096025
              6  10         0.0032359268
              4  23        -0.0031985634
              6   8         0.0029836874
              4  14         0.0029538457
              2  24         0.0029078232
              2   2        -0.0027750858
              3  25         0.0026757147
              2  40         0.0026529800
              6   7         0.0024534158
              7  18         0.0024529722
              5  33        -0.0021191346
              3  41         0.0018462309
              4  37         0.0018067542
              2  21         0.0017339086
              3  29        -0.0017336302
              6  22        -0.0017190159
              3  30        -0.0016756453
              3  35         0.0015110393
              2  11         0.0014903996
              2   5         0.0014816627
              4  27         0.0014161178
              5   2        -0.0014152640
              5  36        -0.0012937121
              5  15        -0.0012599521
              3  38         0.0012525334
              6  19         0.0011842098
              2  36         0.0011160668
              5  20         0.0010458871
              4   0        -0.0009977756
              6  18         0.0009222550
              7  34        -0.0009059208
              3   4         0.0008878898
              3  12         0.0008757006
              3   1        -0.0008046259
              2  15         0.0007448848
              5  11        -0.0007369942
              3  16         0.0007315447
              4  31         0.0006876477
              4   9        -0.0006628308
              7  22         0.0006269401
              2  32        -0.0005699554
              1  13        -0.0005508485
              6  39         0.0005453756
              5  40         0.0005150290
              4   6         0.0005144997
              2  33        -0.0004848599
              0  40        -0.0004610430
              1  41        -0.0003680205
              5  24         0.0003374912
              0  11        -0.0003361517
              7  39         0.0003315850
              1   1        -0.0003282945
              0  15        -0.0002910648
              1  12        -0.0002719430
              6  28         0.0002528598
              0   2        -0.0002408147
              1  35        -0.0002214340
              1   4        -0.0001847629
              5  32        -0.0001841511
              1  38        -0.0001729487
              0  36        -0.0001560899
              0   5        -0.0001365345
              1  25        -0.0001279596
              2  42         0.0001228733
              0  21        -0.0001005047
              1  43         0.0000974807
              0  42         0.0000968266
              3  43         0.0000908003
              1  29        -0.0000821327
              1  16        -0.0000803295
              4  26        -0.0000491020
              1  30        -0.0000490855
              0  24        -0.0000401529
              0  33        -0.0000388742
              5  42         0.0000186820
              1  17        -0.0000095785
              3  17         0.0000034186
              2  20         0.0000020504
              0  20        -0.0000014971
              0  32         0.0000005134

    Largest TIjAb Amplitudes:
      7   7   0   0        -0.1301296742
      7   7   0   9        -0.0558597158
      7   7   9   0        -0.0558597158
      7   7   9   9        -0.0327198864
      5   5  12  12        -0.0310628875
      5   7  12   0        -0.0290224935
      7   5   0  12        -0.0290224935
      6   6   3   3        -0.0265998555
      7   7   8   8        -0.0259748825
      4   4   3   3        -0.0251691379
      5   7  12   9        -0.0222619024
      7   5   9  12        -0.0222619024
      5   5   5   5        -0.0215611815
      3   3   0   0        -0.0214202269
      6   6   4   4        -0.0199852853
      6   7   0   0        -0.0193124907
      7   6   0   0        -0.0193124907
      4   6   3  10         0.0190149153
      6   4  10   3         0.0190149153
      7   7  11  11        -0.0183498854
      3   7   2   0        -0.0180839135
      7   3   0   2        -0.0180839135
      5   7   5   8         0.0178420806
      7   5   8   5         0.0178420806
      5   5   3   3        -0.0174001807
      2   7  12   0        -0.0172899827
      7   2   0  12        -0.0172899827
      4   6   2   4        -0.0171627031
      6   4   4   2        -0.0171627031
      6   6   7   7        -0.0171493738
      4   4   2   2        -0.0165970656
      6   7   7   8        -0.0164148537
      7   6   8   7        -0.0164148537
      2   7   1   0        -0.0160935543
      7   2   0   1        -0.0160935543
      4   5   3   5         0.0158838761
      5   4   5   3         0.0158838761
      4   4   6   6        -0.0158319409
      4   7   6   8        -0.0155676942
      7   4   8   6        -0.0155676942
      3   7   0   2        -0.0153562409
      7   3   2   0        -0.0153562409
      5   6   3   4         0.0153221008
      6   5   4   3         0.0153221008
      4   6   6   7        -0.0151746707
      6   4   7   6        -0.0151746707
      2   7   0  12        -0.0151489001
      7   2  12   0        -0.0151489001
      6   7   6   0        -0.0149892695
      7   6   0   6        -0.0149892695
      2   2  12  12        -0.0148531646
      6   6  10  10        -0.0148409830
      5   6   5   7         0.0141722612
      6   5   7   5         0.0141722612
      4   7   3   8        -0.0138898220
      7   4   8   3        -0.0138898220
      4   6  10   3         0.0138695096
      6   4   3  10         0.0138695096
      6   6   2   2        -0.0137867801
      4   6   3   7        -0.0136791267
      6   4   7   3        -0.0136791267
      3   5   1   5         0.0136312740
      5   3   5   1         0.0136312740
      2   7   1   9        -0.0135331904
      7   2   9   1        -0.0135331904
      2   7  12   9        -0.0134872678
      7   2   9  12        -0.0134872678
      5   6  12   6        -0.0132872150
      6   5   6  12        -0.0132872150
      3   7   1   8        -0.0131799178
      7   3   8   1        -0.0131799178
      5   5  19  19        -0.0130553756
      2   7  13   9        -0.0130162424
      7   2   9  13        -0.0130162424
      6   7   6   9        -0.0129920755
      7   6   9   6        -0.0129920755
      5   6   5  10        -0.0129905669
      6   5  10   5        -0.0129905669
      4   7   7   9        -0.0128398252
      7   4   9   7        -0.0128398252
      4   7   7   0        -0.0128004617
      7   4   0   7        -0.0128004617
      3   5   2  12        -0.0125780910
      5   3  12   2        -0.0125780910
      3   5   0  19         0.0125769971
      5   3  19   0         0.0125769971
      6   6   0   0        -0.0125484776
      3   3  12  12        -0.0124527989
      6   6  15  15        -0.0124033060
      2   7   0   4        -0.0123189102
      7   2   4   0        -0.0123189102
      4   5   7  12        -0.0122077519
      5   4  12   7        -0.0122077519
      6   6   7  10         0.0121476039
      6   6  10   7         0.0121476039
      3   7   0  11         0.0121460389
      7   3  11   0         0.0121460389
      4   6   4   2        -0.0121223289
      6   4   2   4        -0.0121223289
      3   6   0  20         0.0121001594
      6   3  20   0         0.0121001594
      4   6   3  18         0.0120801564
      6   4  18   3         0.0120801564
      2   7   0   1        -0.0120401852
      7   2   1   0        -0.0120401852
      3   6   1   7        -0.0119992089
      6   3   7   1        -0.0119992089
      3   3   2   2        -0.0119898257
      2   5  13  12        -0.0119736735
      5   2  12  13        -0.0119736735
      3   4   1   3        -0.0119602234
      4   3   3   1        -0.0119602234
      4   5   6   5         0.0119106934
      5   4   5   6         0.0119106934
      3   4   0  17         0.0118068280
      4   3  17   0         0.0118068280
      3   7   2   9        -0.0117999896
      7   3   9   2        -0.0117999896
      4   5   2   3         0.0117952496
      5   4   3   2         0.0117952496
      7   7  12  12        -0.0117842590
      4   4  10  10        -0.0116906039
      6   6  16  16        -0.0115210246
      2   7  13   0        -0.0114876843
      7   2   0  13        -0.0114876843
      3   3   1   1        -0.0114765469
      6   7   0   3        -0.0114528216
      7   6   3   0        -0.0114528216
      4   4   7   7        -0.0113820045
      4   7  10   0         0.0113393123
      7   4   0  10         0.0113393123
      6   6   6   6        -0.0112867534
      3   7   0   5        -0.0112856815
      7   3   5   0        -0.0112856815
      4   4   3  14        -0.0112195848
      4   4  14   3        -0.0112195848
      3   6   1  10         0.0112176221
      6   3  10   1         0.0112176221
      6   7  10   8         0.0112167913
      7   6   8  10         0.0112167913
      4   6   7   6        -0.0111976215
      6   4   6   7        -0.0111976215
      4   4   4   4        -0.0111218567
      5   5   2   2        -0.0110210791
      3   7   5   9        -0.0110126196
      7   3   9   5        -0.0110126196
      3   7  13   8        -0.0110017497
      7   3   8  13        -0.0110017497
      4   6  15   4        -0.0109881008
      6   4   4  15        -0.0109881008
      2   7  11   8        -0.0109528866
      7   2   8  11        -0.0109528866
      4   7  10   9         0.0108507556
      7   4   9  10         0.0108507556
      3   7   5   0        -0.0108374407
      7   3   0   5        -0.0108374407
      5   5  14  14        -0.0107908624
      6   6  14  14        -0.0107264912
      3   3   4   4        -0.0106980566
      3   7   0  24        -0.0106253888
      7   3  24   0        -0.0106253888
      2   7   4   0        -0.0105835863
      7   2   0   4        -0.0105835863
      3   3  15  15        -0.0105801349
      4   4  17  17        -0.0105776909
      5   5   3  14        -0.0105500252
      5   5  14   3        -0.0105500252
      6   6   3  14        -0.0105116973
      6   6  14   3        -0.0105116973
      6   6  20  20        -0.0103627178
      3   5   4   2         0.0103511429
      5   3   2   4         0.0103511429
      4   6  18   3         0.0102356517
      6   4   3  18         0.0102356517
      4   4  14  14        -0.0102014746
      4   6  15  16        -0.0101920343
      6   4  16  15        -0.0101920343
      4   6  17  20        -0.0101588155
      6   4  20  17        -0.0101588155
      7   7  19  19        -0.0101546027
      3   3   5   5        -0.0100810633
      3   5   2   4         0.0100457373
      5   3   4   2         0.0100457373
      2   2   0   0        -0.0100293661
      2   2   3   3        -0.0100119732
      4   6   4  15        -0.0099708553
      6   4  15   4        -0.0099708553
      6   7   0   9        -0.0099347465
      7   6   9   0        -0.0099347465
      3   5  13   5         0.0098941396
      5   3   5  13         0.0098941396
      6   6   4  16        -0.0098895387
      6   6  16   4        -0.0098895387
      5   5   0   0        -0.0098695699
      4   6  16  15        -0.0098428237
      6   4  15  16        -0.0098428237
      2   5   1  12        -0.0098004507
      5   2  12   1        -0.0098004507
      4   4  15  15        -0.0097969877
      5   6   3  16         0.0097413189
      6   5  16   3         0.0097413189
      3   7   0  15        -0.0096526830
      7   3  15   0        -0.0096526830
      3   4  13   3        -0.0096503355
      4   3   3  13        -0.0096503355
      4   5  15   3         0.0096122077
      5   4   3  15         0.0096122077
      6   6  18  18        -0.0096045130
      4   6  14  18         0.0094816378
      6   4  18  14         0.0094816378
      7   7  17  17        -0.0094235776
      4   4   7  10         0.0094202464
      4   4  10   7         0.0094202464
      2   5  11   5         0.0094116216
      5   2   5  11         0.0094116216
      3   5  11  12        -0.0094096934
      5   3  12  11        -0.0094096934
      2   5  12  12        -0.0093570670
      5   2  12  12        -0.0093570670
      4   6   6  10         0.0093045244
      6   4  10   6         0.0093045244
      2   7   9  12        -0.0092944556
      7   2  12   9        -0.0092944556
      3   4   1   6        -0.0092401595
      4   3   6   1        -0.0092401595
      6   7   9   0        -0.0092074174
      7   6   0   9        -0.0092074174
      3   5  12   2        -0.0092031396
      5   3   2  12        -0.0092031396
      3   6   3   2        -0.0091421733
      6   3   2   3        -0.0091421733
      5   6  14  16         0.0091391263
      6   5  16  14         0.0091391263
      6   6   2  15        -0.0091058051
      6   6  15   2        -0.0091058051
      5   5   4   4        -0.0090889059
      4   5  17  19        -0.0090695563
      5   4  19  17        -0.0090695563
      3   3   2  15        -0.0090630125
      3   3  15   2        -0.0090630125
      3   3   0   9        -0.0090410980
      3   3   9   0        -0.0090410980
      3   5   5  12        -0.0090373610
      5   3  12   5        -0.0090373610
      6   6  17  17        -0.0090198864
      5   7   0   4         0.0089396791
      7   5   4   0         0.0089396791
      4   4   3   6        -0.0088580368
      4   4   6   3        -0.0088580368
      5   7   4   0         0.0088227786
      7   5   0   4         0.0088227786
      2   4  11   6        -0.0087915767
      4   2   6  11        -0.0087915767
      2   2  13  13        -0.0087599667
      3   3   3   3        -0.0087038898
      4   4  20  20        -0.0086570389
      3   6  13   7        -0.0086444309
      6   3   7  13        -0.0086444309
      4   4  16  16        -0.0086053802
      3   6   3  15        -0.0085854231
      6   3  15   3        -0.0085854231
      3   6  13  10         0.0085015411
      6   3  10  13         0.0085015411
      2   7   0  16        -0.0084106930
      7   2  16   0        -0.0084106930
      2   7   9   1        -0.0084070085
      7   2   1   9        -0.0084070085
      4   4   2  15        -0.0083329397
      4   4  15   2        -0.0083329397
      4   7   3  19         0.0083294417
      7   4  19   3         0.0083294417
      2   2  12  13        -0.0083288851
      2   2  13  12        -0.0083288851
      4   6  20  17        -0.0082910237
      6   4  17  20        -0.0082910237
      5   6   1   3         0.0082681294
      6   5   3   1         0.0082681294
      5   7   3  17         0.0082345969
      7   5  17   3         0.0082345969
      2   4   0  20         0.0082271638
      4   2  20   0         0.0082271638
      2   2   0   9        -0.0082146804
      2   2   9   0        -0.0082146804
      3   6   5   3        -0.0082126192
      6   3   3   5        -0.0082126192
      2   7   2   8        -0.0081903256
      7   2   8   2        -0.0081903256
      3   5   4  15         0.0081871722
      5   3  15   4         0.0081871722
      2   6   0  17         0.0081643993
      6   2  17   0         0.0081643993
      5   7  13   0        -0.0081501807
      7   5   0  13        -0.0081501807
      5   6  19  20        -0.0081485503
      6   5  20  19        -0.0081485503
      2   6  11   7        -0.0081460186
      6   2   7  11        -0.0081460186
      3   5  15   4         0.0081276356
      5   3   4  15         0.0081276356
      3   4   3   4        -0.0081069229
      4   3   4   3        -0.0081069229
      2   2  11  11        -0.0080777763
      4   7   0  10         0.0080741711
      7   4  10   0         0.0080741711
      3   7  15   0        -0.0080599358
      7   3   0  15        -0.0080599358
      3   6  14  15        -0.0080470052
      6   3  15  14        -0.0080470052
      5   5   4  12         0.0079809169
      5   5  12   4         0.0079809169
      2   2   9   9        -0.0079412089
      4   6  18  14         0.0079302751
      6   4  14  18         0.0079302751
      3   7   9   2        -0.0078954991
      7   3   2   9        -0.0078954991
      2   2  19  19        -0.0078319887
      6   6   1   1        -0.0077933825
      3   4   5  10         0.0077741997
      4   3  10   5         0.0077741997
      4   5  15  14         0.0077455566
      5   4  14  15         0.0077455566
      4   4  18  18        -0.0077359673
      4   5  10  12         0.0077356073
      5   4  12  10         0.0077356073
      4   6   7   3        -0.0077349382
      6   4   3   7        -0.0077349382
      4   6  10   6         0.0077181620
      6   4   6  10         0.0077181620
      5   5   1   1        -0.0077169734
      4   5   3  21         0.0076789423
      5   4  21   3         0.0076789423
      3   3   1  13        -0.0076622952
      3   3  13   1        -0.0076622952
      3   4  13   6        -0.0076353508
      4   3   6  13        -0.0076353508
      2   4  13   7        -0.0076118251
      4   2   7  13        -0.0076118251
      3   3  16  16        -0.0075908618
      5   5  15  15        -0.0075882180
      5   6  14   4         0.0075730273
      6   5   4  14         0.0075730273
      3   3  13  13        -0.0075614428
      2   4  13  10         0.0075477706
      4   2  10  13         0.0075477706
      3   5   5   1         0.0075120577
      5   3   1   5         0.0075120577
      3   4   5   7        -0.0074721634
      4   3   7   5        -0.0074721634
      3   6  15   3        -0.0074254107
      6   3   3  15        -0.0074254107
      2   2   3  14        -0.0074029502
      2   2  14   3        -0.0074029502
      3   5   4   5         0.0073713310
      5   3   5   4         0.0073713310
      5   7  14  17         0.0073657675
      7   5  17  14         0.0073657675
      7   7  24  24        -0.0073302574
      4   4  21  21        -0.0073289130
      3   6   4  10         0.0073236251
      6   3  10   4         0.0073236251
      7   7   1   1        -0.0072664629
      3   6   2  23        -0.0072657239
      6   3  23   2        -0.0072657239
      3   6   2   6        -0.0072363640
      6   3   6   2        -0.0072363640
      2   6   3  12        -0.0072059786
      6   2  12   3        -0.0072059786
      2   4   2   6        -0.0071695915
      4   2   6   2        -0.0071695915
      7   7   1  12        -0.0071634452
      7   7  12   1        -0.0071634452
      5   5   2  15        -0.0071510769
      5   5  15   2        -0.0071510769
      5   6   4   3         0.0071435532
      6   5   3   4         0.0071435532
      6   6  10  18        -0.0071408864
      6   6  18  10        -0.0071408864
      2   2  14  14        -0.0071291228
      3   7  12  19         0.0071193544
      7   3  19  12         0.0071193544
      3   5  15  16         0.0070922569
      5   3  16  15         0.0070922569
      2   4   1   7        -0.0070596251
      4   2   7   1        -0.0070596251
      2   3   2   4        -0.0070584982
      3   2   4   2        -0.0070584982
      3   3  19  19        -0.0069858513
      3   5  19   0         0.0069664269
      5   3   0  19         0.0069664269
      2   4   1  10         0.0069362970
      4   2  10   1         0.0069362970
      5   6  18  15        -0.0069330306
      6   5  15  18        -0.0069330306
      2   6   3   1        -0.0069283622
      6   2   1   3        -0.0069283622
      3   5  16  15         0.0069252491
      5   3  15  16         0.0069252491
      7   7   5  11         0.0069212530
      7   7  11   5         0.0069212530
      3   3   2   5        -0.0069210596
      3   3   5   2        -0.0069210596
      3   6  20   0         0.0069186528
      6   3   0  20         0.0069186528
      5   5  11  11        -0.0069127777
      3   7  11   9        -0.0069083668
      7   3   9  11        -0.0069083668
      3   6   5   6        -0.0068996795
      6   3   6   5        -0.0068996795
      6   6  22  22        -0.0068983033
      2   6  13   6        -0.0068434268
      6   2   6  13        -0.0068434268
      6   6  21  21        -0.0068424554
      6   7   9   9        -0.0068271855
      7   6   9   9        -0.0068271855
      3   4   4   3        -0.0068159061
      4   3   3   4        -0.0068159061
      2   5   2   5         0.0067741459
      5   2   5   2         0.0067741459
      2   4  12  10         0.0067668093
      4   2  10  12         0.0067668093
      2   5  12  13        -0.0067556611
      5   2  13  12        -0.0067556611
      2   6  13   3        -0.0067316324
      6   2   3  13        -0.0067316324
      4   6   2  16        -0.0067284868
      6   4  16   2        -0.0067284868
      3   7  15   9        -0.0067128296
      7   3   9  15        -0.0067128296
      3   7   4   8        -0.0066788985
      7   3   8   4        -0.0066788985
      2   7   4   9        -0.0066656323
      7   2   9   4        -0.0066656323
      5   6  12   0        -0.0066643249
      6   5   0  12        -0.0066643249
      3   3   4  16        -0.0066615790
      3   3  16   4        -0.0066615790
      7   7   3   3        -0.0066536047
      3   3  20  20        -0.0066340291
      3   4   4   6        -0.0066254997
      4   3   6   4        -0.0066254997
      3   6   4   7        -0.0066081550
      6   3   7   4        -0.0066081550
      3   4  14  16        -0.0065966166
      4   3  16  14        -0.0065966166
      5   7  19  24         0.0065932548
      7   5  24  19         0.0065932548
      3   6  21   3        -0.0065839810
      6   3   3  21        -0.0065839810
      2   7   9  13        -0.0065772606
      7   2  13   9        -0.0065772606
      4   4   4  16        -0.0065582660
      4   4  16   4        -0.0065582660
      3   5  15  12        -0.0065305758
      5   3  12  15        -0.0065305758
      3   3   9   9        -0.0065202000
      2   6   1   6        -0.0065030904
      6   2   6   1        -0.0065030904
      3   6  11   6        -0.0064770781
      6   3   6  11        -0.0064770781
      3   6   3   5        -0.0064609722
      6   3   5   3        -0.0064609722
      3   4   2   7        -0.0064453381
      4   3   7   2        -0.0064453381
      6   7   3   3         0.0064211622
      7   6   3   3         0.0064211622
      3   3  10  10        -0.0064163172
      4   4  10  18        -0.0063791306
      4   4  18  10        -0.0063791306
      4   5  16  18        -0.0063780646
      5   4  18  16        -0.0063780646
      4   5   4  10        -0.0063672815
      5   4  10   4        -0.0063672815
      3   3  14  14        -0.0063502131
      2   2   1  13        -0.0063444399
      2   2  13   1        -0.0063444399
      3   5   9  19         0.0063346476
      5   3  19   9         0.0063346476
      6   7  23   0        -0.0063042855
      7   6   0  23        -0.0063042855
      3   6  10   1         0.0062752692
      6   3   1  10         0.0062752692
      4   4   0   0        -0.0062640030
      2   7   9   4        -0.0062629953
      7   2   4   9        -0.0062629953
      5   6  12  23        -0.0062623815
      6   5  23  12        -0.0062623815
      2   2   1  12        -0.0062613386
      2   2  12   1        -0.0062613386
      2   6   2   7        -0.0062588125
      6   2   7   2        -0.0062588125
      4   7  14  19         0.0062571687
      7   4  19  14         0.0062571687
      5   5  21  21        -0.0062362282
      2   6   3  13        -0.0062064645
      6   2  13   3        -0.0062064645
      3   3  17  17        -0.0062017823
      6   6   4  13        -0.0062000325
      6   6  13   4        -0.0062000325
      2   4   3  21        -0.0061965630
      4   2  21   3        -0.0061965630
      2   5   8  19         0.0061801984
      5   2  19   8         0.0061801984
      4   5  14  11        -0.0061681592
      5   4  11  14        -0.0061681592
      3   4  17   0         0.0061536622
      4   3   0  17         0.0061536622
      3   3  11  11        -0.0061509838
      4   6  14  10         0.0061470134
      6   4  10  14         0.0061470134
      5   6   2   7         0.0061336708
      6   5   7   2         0.0061336708
      6   7   3   9        -0.0061289858
      7   6   9   3        -0.0061289858
      3   6  18  16         0.0061091316
      6   3  16  18         0.0061091316
      7   7   2   2        -0.0061025034
      4   6  16  11         0.0060998140
      6   4  11  16         0.0060998140
      5   5   5  21        -0.0060976726
      5   5  21   5        -0.0060976726
      3   6   4  22        -0.0060885918
      6   3  22   4        -0.0060885918
      3   6   7   1        -0.0060843095
      6   3   1   7        -0.0060843095
      3   4  11   7        -0.0060774506
      4   3   7  11        -0.0060774506
      2   5   2   2         0.0060739229
      5   2   2   2         0.0060739229
      7   7   0  26        -0.0060715960
      7   7  26   0        -0.0060715960
      6   6  23  23        -0.0060624276
      3   7   9  24        -0.0060565448
      7   3  24   9        -0.0060565448
      3   7   9   5        -0.0060348337
      7   3   5   9        -0.0060348337
      4   5   6   2         0.0060296907
      5   4   2   6         0.0060296907
      7   7   0   3        -0.0060220086
      7   7   3   0        -0.0060220086
      6   6  11  11        -0.0060150522
      3   6  19  17         0.0060149982
      6   3  17  19         0.0060149982
      2   7   3  17         0.0059764057
      7   2  17   3         0.0059764057
      5   6  10   2        -0.0059743507
      6   5   2  10        -0.0059743507
      6   6  11  15         0.0059698199
      6   6  15  11         0.0059698199
      3   6  10   4         0.0059690884
      6   3   4  10         0.0059690884
      7   7   0   6         0.0059643727
      7   7   6   0         0.0059643727
      2   2  17  17        -0.0059423708
      2   5   0  26        -0.0059355058
      5   2  26   0        -0.0059355058
      2   3   0  19        -0.0059289713
      3   2  19   0        -0.0059289713
      2   2   1   1        -0.0058899077
      5   7   9  12        -0.0058736017
      7   5  12   9        -0.0058736017
      2   3   1   5        -0.0058669921
      3   2   5   1        -0.0058669921
      5   7  21  19        -0.0058434583
      7   5  19  21        -0.0058434583
      7   7   8  19         0.0058403555
      7   7  19   8         0.0058403555
      2   5  12  25        -0.0058198211
      5   2  25  12        -0.0058198211
      3   4   3  13        -0.0058190597
      4   3  13   3        -0.0058190597
      3   4   2  10         0.0058130590
      4   3  10   2         0.0058130590
      3   4  18  15         0.0058120398
      4   3  15  18         0.0058120398
      3   6  15  14        -0.0057989608
      6   3  14  15        -0.0057989608
      3   4   4  23        -0.0057956065
      4   3  23   4        -0.0057956065
      7   7   5   5        -0.0057737694
      3   4   2  22        -0.0057631201
      4   3  22   2        -0.0057631201
      2   3   4   2        -0.0057577555
      3   2   2   4        -0.0057577555
      4   6  11  16         0.0057380091
      6   4  16  11         0.0057380091
      4   6  21  25         0.0057251369
      6   4  25  21         0.0057251369
      2   7   0  13        -0.0057234474
      7   2  13   0        -0.0057234474
      5   6  25   3        -0.0056956353
      6   5   3  25        -0.0056956353
      3   3  18  18        -0.0056947630
      3   6  12  22         0.0056923564
      6   3  22  12         0.0056923564
      2   4  12  18         0.0056697338
      4   2  18  12         0.0056697338
      2   6  17   0         0.0056605390
      6   2   0  17         0.0056605390
      5   6   2  22         0.0056576830
      6   5  22   2         0.0056576830
      3   3   4  12         0.0056389675
      3   3  12   4         0.0056389675
      5   6  16   3         0.0056362393
      6   5   3  16         0.0056362393
      2   6  12   3        -0.0056194306
      6   2   3  12        -0.0056194306
      2   3   8   0        -0.0056064484
      3   2   0   8        -0.0056064484
      3   4  12   3        -0.0056026250
      4   3   3  12        -0.0056026250
      2   3  15   4        -0.0055988024
      3   2   4  15        -0.0055988024
      5   7  19   2         0.0055933979
      7   5   2  19         0.0055933979
      2   3  17  20        -0.0055806263
      3   2  20  17        -0.0055806263
      2   5   3  27        -0.0055805477
      5   2  27   3        -0.0055805477
      2   3   8   9        -0.0055739940
      3   2   9   8        -0.0055739940
      2   2   8   8        -0.0055724609
      3   3   7   7        -0.0055635070
      3   5   2  16         0.0055532107
      5   3  16   2         0.0055532107
      3   7   9  15        -0.0055468482
      7   3  15   9        -0.0055468482
      4   4   1   1        -0.0055449426
      4   5  23   2         0.0055444041
      5   4   2  23         0.0055444041
      2   5   5  11         0.0055378740
      5   2  11   5         0.0055378740
      3   4  12  14        -0.0055292397
      4   3  14  12        -0.0055292397
      2   5   4   4         0.0055272254
      5   2   4   4         0.0055272254
      5   6   4  23         0.0055177900
      6   5  23   4         0.0055177900
      5   6  16  14         0.0055140845
      6   5  14  16         0.0055140845
      4   7  17  24         0.0055115995
      7   4  24  17         0.0055115995
      6   6  25  25        -0.0055071053
      7   7  13  13        -0.0054936482
      5   7   0  16         0.0054929495
      7   5  16   0         0.0054929495
      2   5   3  14        -0.0054813004
      5   2  14   3        -0.0054813004
      4   6  16   2        -0.0054722175
      6   4   2  16        -0.0054722175
      2   6   1   3        -0.0054688621
      6   2   3   1        -0.0054688621
      2   3   3  10         0.0054475838
      3   2  10   3         0.0054475838
      6   7   9   3        -0.0054465756
      7   6   3   9        -0.0054465756
      3   6  15  23        -0.0054438492
      6   3  23  15        -0.0054438492
      5   5   4  16        -0.0054333554
      5   5  16   4        -0.0054333554
      4   4  11  11        -0.0054321969
      3   6   2   3        -0.0054212837
      6   3   3   2        -0.0054212837
      2   5   0   0         0.0053773771
      5   2   0   0         0.0053773771
      3   5  12  24         0.0053670296
      5   3  24  12         0.0053670296
      7   7   4   4        -0.0053666447
      4   5   2  14         0.0053604632
      5   4  14   2         0.0053604632
      6   6   5   5        -0.0053519731
      4   6  23  22        -0.0053474070
      6   4  22  23        -0.0053474070
      3   4  19  20         0.0053462175
      4   3  20  19         0.0053462175
      3   6  16  18         0.0053454839
      6   3  18  16         0.0053454839
      4   4  12  12        -0.0053413704
      3   3   1   4        -0.0053275342
      3   3   4   1        -0.0053275342
      5   7   4   9         0.0053119159
      7   5   9   4         0.0053119159
      4   6   2  13        -0.0053107973
      6   4  13   2        -0.0053107973
      5   5  18  18        -0.0053035903
      4   7  17  11        -0.0053021990
      7   4  11  17        -0.0053021990
      5   5  16  16        -0.0052972549
      2   3   4  15        -0.0052852947
      3   2  15   4        -0.0052852947
      3   6  11  14         0.0052845124
      6   3  14  11         0.0052845124
      5   6   0  17        -0.0052843615
      6   5  17   0        -0.0052843615
      4   4  23  23        -0.0052792392
      3   5  12  11        -0.0052777854
      5   3  11  12        -0.0052777854
      3   4   9  17         0.0052572107
      4   3  17   9         0.0052572107
      2   3  13   5        -0.0052440808
      3   2   5  13        -0.0052440808
      3   3   4  13        -0.0052383335
      3   3  13   4        -0.0052383335
      7   7   8  10        -0.0052331352
      7   7  10   8        -0.0052331352
      6   6  13  13        -0.0052284020
      3   6   3  21        -0.0052258195
      6   3  21   3        -0.0052258195
      2   4  12   7        -0.0052206663
      4   2   7  12        -0.0052206663
      4   4  22  22        -0.0052178057
      3   3   0  26         0.0052168464
      3   3  26   0         0.0052168464
      3   3   5  15        -0.0052037614
      3   3  15   5        -0.0052037614
      3   5   3  10        -0.0051822721
      5   3  10   3        -0.0051822721
      3   4   3   1        -0.0051737813
      4   3   1   3        -0.0051737813
      5   7   2  19         0.0051719719
      7   5  19   2         0.0051719719
      6   6  12  12        -0.0051711839
      4   7  20  12         0.0051589861
      7   4  12  20         0.0051589861
      3   5  16   2         0.0051561055
      5   3   2  16         0.0051561055
      3   6  18   4         0.0051480798
      6   3   4  18         0.0051480798
      4   6  21   1        -0.0051376935
      6   4   1  21        -0.0051376935
      5   5  13  13        -0.0051333475
      5   7  25   9        -0.0051186511
      7   5   9  25        -0.0051186511
      2   2   5   5        -0.0051185549
      3   6  10  13         0.0051169470
      6   3  13  10         0.0051169470
      4   6  25  21         0.0051106104
      6   4  21  25         0.0051106104
      2   7  12  26        -0.0050980428
      7   2  26  12        -0.0050980428
      3   3  21  21        -0.0050940365
      4   6  22  23        -0.0050926228
      6   4  23  22        -0.0050926228
      3   3   5  11        -0.0050774716
      3   3  11   5        -0.0050774716
      2   3  15  16        -0.0050728149
      3   2  16  15        -0.0050728149
      3   5  12  15        -0.0050721190
      5   3  15  12        -0.0050721190
      2   4  20   0         0.0050585292
      4   2   0  20         0.0050585292
      4   6   5   1        -0.0050580506
      6   4   1   5        -0.0050580506
      3   5   5   4         0.0050578139
      5   3   4   5         0.0050578139
      4   5   4  18        -0.0050483596
      5   4  18   4        -0.0050483596
      3   6  12  18         0.0050480513
      6   3  18  12         0.0050480513
      3   4  15  18         0.0050460013
      4   3  18  15         0.0050460013
      5   6   3  12        -0.0050446047
      6   5  12   3        -0.0050446047
      3   3  22  22        -0.0050440902
      2   7  12  31        -0.0050433847
      7   2  31  12        -0.0050433847
      4   5   3  15         0.0050374904
      5   4  15   3         0.0050374904
      4   5  11  14        -0.0050359178
      5   4  14  11        -0.0050359178
      2   3  20  17        -0.0050270990
      3   2  17  20        -0.0050270990
      2   7  25   0        -0.0050230587
      7   2   0  25        -0.0050230587
      3   3  23  23        -0.0050192156
      4   5  20  26         0.0050143250
      5   4  26  20         0.0050143250
      5   6  10  15        -0.0050107139
      6   5  15  10        -0.0050107139
      7   7   4  12        -0.0050047601
      7   7  12   4        -0.0050047601
      2   2  21  21        -0.0049786979
      5   7  21   8         0.0049701808
      7   5   8  21         0.0049701808
      2   4  10   1         0.0049688077
      4   2   1  10         0.0049688077
      5   6  26  17         0.0049654189
      6   5  17  26         0.0049654189
      2   3  11  13        -0.0049574234
      3   2  13  11        -0.0049574234
      4   6   1   5        -0.0049550915
      6   4   5   1        -0.0049550915
      7   7   6   9         0.0049514781
      7   7   9   6         0.0049514781
      3   4   3  16        -0.0049453086
      4   3  16   3        -0.0049453086
      3   6  14  11         0.0049383989
      6   3  11  14         0.0049383989
      4   6   1  21        -0.0049188232
      6   4  21   1        -0.0049188232
      3   4  10   5         0.0049181952
      4   3   5  10         0.0049181952
      5   6  21  10        -0.0049153040
      6   5  10  21        -0.0049153040
      2   6   9  17         0.0049063920
      6   2  17   9         0.0049063920
      5   5  23  23        -0.0049051377
      3   4  21  10         0.0049035006
      4   3  10  21         0.0049035006
      2   3   2   1        -0.0048993865
      3   2   1   2        -0.0048993865
      2   2   2   2        -0.0048965637
      4   4  13  13        -0.0048940972
      4   5  10   4        -0.0048894831
      5   4   4  10        -0.0048894831
      2   6   2  10         0.0048876796
      6   2  10   2         0.0048876796
      3   3   6   6        -0.0048876505
      6   7  20  24         0.0048874721
      7   6  24  20         0.0048874721
      2   5  25  12        -0.0048821546
      5   2  12  25        -0.0048821546
      5   5   2   5        -0.0048709520
      5   5   5   2        -0.0048709520
      2   5  12  29        -0.0048691881
      5   2  29  12        -0.0048691881
      3   4  14   4        -0.0048591689
      4   3   4  14        -0.0048591689
      3   4  12  23         0.0048545864
      4   3  23  12         0.0048545864
      3   5  12  21         0.0048477976
      5   3  21  12         0.0048477976
      3   6  26  20        -0.0048373422
      6   3  20  26        -0.0048373422
      2   6  14  12        -0.0048345123
      6   2  12  14        -0.0048345123
      3   4  16  14        -0.0048324769
      4   3  14  16        -0.0048324769
      5   6  12   9        -0.0048118674
      6   5   9  12        -0.0048118674
      3   4  10   2         0.0048094469
      4   3   2  10         0.0048094469
      6   7   4  17        -0.0048093581
      7   6  17   4        -0.0048093581
      4   5  10  25         0.0047971408
      5   4  25  10         0.0047971408
      2   5  15  15         0.0047892391
      5   2  15  15         0.0047892391
      6   7  17  12         0.0047857759
      7   6  12  17         0.0047857759
      5   6  11  18         0.0047816996
      6   5  18  11         0.0047816996
      2   5  12  35        -0.0047681069
      5   2  35  12        -0.0047681069
      6   7  20  11        -0.0047653656
      7   6  11  20        -0.0047653656
      2   3   2  13        -0.0047638968
      3   2  13   2        -0.0047638968
      7   7  20  20        -0.0047576089
      2   2   6   6        -0.0047557133
      3   5  14  18        -0.0047556110
      5   3  18  14        -0.0047556110
      2   3  16  15        -0.0047524912
      3   2  15  16        -0.0047524912
      3   4  15  10         0.0047455031
      4   3  10  15         0.0047455031
      5   5  12  25        -0.0047367259
      5   5  25  12        -0.0047367259
      5   5  24  24        -0.0047235479
      5   7  25   0        -0.0047141558
      7   5   0  25        -0.0047141558
      2   3  13   2        -0.0047023710
      3   2   2  13        -0.0047023710
      5   7  19  11        -0.0046865252
      7   5  11  19        -0.0046865252
      3   6   6  11        -0.0046788421
      6   3  11   6        -0.0046788421
      2   4  10  13         0.0046757948
      4   2  13  10         0.0046757948
      5   5   1  13        -0.0046751131
      5   5  13   1        -0.0046751131
      3   6   9  20         0.0046707452
      6   3  20   9         0.0046707452
      2   7  15   8        -0.0046517550
      7   2   8  15        -0.0046517550
      1   1  42  42        -0.0046471653
      2   3  11   1        -0.0046438291
      3   2   1  11        -0.0046438291
      0   0  42  42        -0.0046437338
      0   1  42  43        -0.0046408549
      1   0  43  42        -0.0046408549
      0   1  43  42        -0.0046407882
      1   0  42  43        -0.0046407882
      1   1  43  43        -0.0046386422
      0   0  43  43        -0.0046352956
      6   6   2   5        -0.0046327547
      6   6   5   2        -0.0046327547
      3   4  10  21         0.0046304021
      4   3  21  10         0.0046304021
      5   6  15  18        -0.0046299634
      6   5  18  15        -0.0046299634
      2   7   8  24        -0.0046285676
      7   2  24   8        -0.0046285676
      4   5  22  12        -0.0046178648
      5   4  12  22        -0.0046178648
      2   4   9  20         0.0046176031
      4   2  20   9         0.0046176031
      2   2  24  24        -0.0046164177
      2   5   4  12        -0.0046093703
      5   2  12   4        -0.0046093703
      2   4   6  11        -0.0046079842
      4   2  11   6        -0.0046079842
      5   7  11  19         0.0045890168
      7   5  19  11         0.0045890168
      5   6   2  10        -0.0045835439
      6   5  10   2        -0.0045835439
      4   6  13   2        -0.0045819098
      6   4   2  13        -0.0045819098
      2   7   0  25        -0.0045792131
      7   2  25   0        -0.0045792131
      5   7   0  12        -0.0045721655
      7   5  12   0        -0.0045721655
      3   4  25   3         0.0045663459
      4   3   3  25         0.0045663459
      3   7   8   1        -0.0045515851
      7   3   1   8        -0.0045515851
      5   5  10  10        -0.0045503855
      2   4   7   1        -0.0045495127
      4   2   1   7        -0.0045495127
      2   5  13  25        -0.0045395590
      5   2  25  13        -0.0045395590
      6   6   1  13        -0.0045341240
      6   6  13   1        -0.0045341240
      7   7  11  24         0.0045272917
      7   7  24  11         0.0045272917
      3   4   6   1        -0.0045178124
      4   3   1   6        -0.0045178124
      3   3   3  14        -0.0045092253
      3   3  14   3        -0.0045092253
      7   7   1   4        -0.0044979407
      7   7   4   1        -0.0044979407
      4   5  18  16        -0.0044933717
      5   4  16  18        -0.0044933717
      3   7   8  13        -0.0044810016
      7   3  13   8        -0.0044810016
      4   4  25  25        -0.0044715910
      2   6   2  22        -0.0044673218
      6   2  22   2        -0.0044673218
      6   6   3   6        -0.0044629149
      6   6   6   3        -0.0044629149
      2   5   6  14        -0.0044525552
      5   2  14   6        -0.0044525552
      7   7   2  24        -0.0044355826
      7   7  24   2        -0.0044355826
      4   7  21  17         0.0044211795
      7   4  17  21         0.0044211795
      5   6  10   5        -0.0044062059
      6   5   5  10        -0.0044062059
      4   5  14  21         0.0044031922
      5   4  21  14         0.0044031922
      6   7  16  17        -0.0044030237
      7   6  17  16        -0.0044030237
      2   5  15   5         0.0043904745
      5   2   5  15         0.0043904745
      2   2  20  20        -0.0043796415
      2   3   9   8        -0.0043782821
      3   2   8   9        -0.0043782821
      5   6  12  14         0.0043757965
      6   5  14  12         0.0043757965
      2   4  13  18         0.0043614030
      4   2  18  13         0.0043614030
      2   7   9  16        -0.0043535119
      7   2  16   9        -0.0043535119
      2   4   2   3        -0.0043512250
      4   2   3   2        -0.0043512250
      2   5   0  31        -0.0043413917
      5   2  31   0        -0.0043413917
      6   7  14   0         0.0043397748
      7   6   0  14         0.0043397748
      5   6  18  11         0.0043358676
      6   5  11  18         0.0043358676
      2   3   1   2        -0.0043308372
      3   2   2   1        -0.0043308372
      3   5   1   2         0.0043263510
      5   3   2   1         0.0043263510
      4   6   2  12         0.0043260946
      6   4  12   2         0.0043260946
      2   3   6   7        -0.0043246958
      3   2   7   6        -0.0043246958
      3   6  13  18         0.0043222746
      6   3  18  13         0.0043222746
      5   5  12  13        -0.0043197641
      5   5  13  12        -0.0043197641
      3   4  22   2        -0.0043173638
      4   3   2  22        -0.0043173638
      2   3   0   8        -0.0043072873
      3   2   8   0        -0.0043072873
      4   6  21  12        -0.0043057371
      6   4  12  21        -0.0043057371
      2   6  10  21         0.0043025204
      6   2  21  10         0.0043025204
      6   7  12  17         0.0043008779
      7   6  17  12         0.0043008779
      5   5   2  24         0.0042982560
      5   5  24   2         0.0042982560
      7   7   1  13        -0.0042979702
      7   7  13   1        -0.0042979702
      3   7  11   0        -0.0042955286
      7   3   0  11        -0.0042955286
[...]
      4   1  28   5         0.0000009479
      0   2   1  16         0.0000009464
      2   0  16   1         0.0000009464
      5   6  42  22         0.0000009444
      6   5  22  42         0.0000009444
      0   3  43  20        -0.0000009443
      3   0  20  43        -0.0000009443
      0   6  42   8        -0.0000009390
      6   0   8  42        -0.0000009390
      0   0  17  17        -0.0000009361
      2   7  14  43        -0.0000009298
      7   2  43  14        -0.0000009298
      0   0   4  25         0.0000009239
      0   0  25   4         0.0000009239
      7   7  33  42        -0.0000009116
      7   7  42  33        -0.0000009116
      0   6  32  34         0.0000009106
      6   0  34  32         0.0000009106
      0   7  43   3         0.0000009094
      7   0   3  43         0.0000009094
      4   6  42  17        -0.0000009085
      6   4  17  42        -0.0000009085
      6   7  43   1         0.0000009083
      7   6   1  43         0.0000009083
      0   7  32  19        -0.0000009011
      7   0  19  32        -0.0000009011
      0   2  22  34         0.0000008971
      2   0  34  22         0.0000008971
      0   7  11  22         0.0000008971
      7   0  22  11         0.0000008971
      0   1  17  24        -0.0000008947
      1   0  24  17        -0.0000008947
      2   2  17  43         0.0000008935
      2   2  43  17         0.0000008935
      1   3  25  17        -0.0000008837
      3   1  17  25        -0.0000008837
      0   4  42   6        -0.0000008800
      4   0   6  42        -0.0000008800
      0   5  21   2         0.0000008786
      5   0   2  21         0.0000008786
      0   4  29  28         0.0000008730
      4   0  28  29         0.0000008730
      2   7  42  39        -0.0000008718
      7   2  39  42        -0.0000008718
      0   4  43   7         0.0000008580
      4   0   7  43         0.0000008580
      1   4  43  26        -0.0000008546
      4   1  26  43        -0.0000008546
      0   2  19  39        -0.0000008532
      2   0  39  19        -0.0000008532
      0   4  42  27        -0.0000008390
      4   0  27  42        -0.0000008390
      0   5  17  16         0.0000008365
      5   0  16  17         0.0000008365
      2   7  43   6        -0.0000008348
      7   2   6  43        -0.0000008348
      1   5  20  25         0.0000008345
      5   1  25  20         0.0000008345
      0   2  22  28         0.0000008237
      2   0  28  22         0.0000008237
      1   7  43  34         0.0000008226
      7   1  34  43         0.0000008226
      0   1   6  28         0.0000008201
      1   0  28   6         0.0000008201
      0   1  22   0        -0.0000008188
      1   0   0  22        -0.0000008188
      1   4  24  28        -0.0000008134
      4   1  28  24        -0.0000008134
      1   4  11  28         0.0000008015
      4   1  28  11         0.0000008015
      2   3  32  43        -0.0000008009
      3   2  43  32        -0.0000008009
      1   5  32  43        -0.0000007951
      5   1  43  32        -0.0000007951
      1   5  26  22        -0.0000007932
      5   1  22  26        -0.0000007932
      1   1  17  17        -0.0000007805
      1   4  41   9        -0.0000007767
      4   1   9  41        -0.0000007767
      0   2   0  14         0.0000007758
      2   0  14   0         0.0000007758
      1   7  43   7        -0.0000007701
      7   1   7  43        -0.0000007701
      1   2  27  28        -0.0000007615
      2   1  28  27        -0.0000007615
      0   4  42  26        -0.0000007538
      4   0  26  42        -0.0000007538
      0   1  24  17        -0.0000007511
      1   0  17  24        -0.0000007511
      1   4  21   8        -0.0000007456
      4   1   8  21        -0.0000007456
      1   4  43  31        -0.0000007446
      4   1  31  43        -0.0000007446
      0   4  13  28        -0.0000007430
      4   0  28  13        -0.0000007430
      0   2  34  22        -0.0000007350
      2   0  22  34        -0.0000007350
      0   5  13  17         0.0000007289
      5   0  17  13         0.0000007289
      1   3  22  18         0.0000007220
      3   1  18  22         0.0000007220
      1   3  17  12         0.0000007190
      3   1  12  17         0.0000007190
      0   1  26  18         0.0000007159
      1   0  18  26         0.0000007159
      1   5  17   2        -0.0000007132
      5   1   2  17        -0.0000007132
      0   1  28   6         0.0000007081
      1   0   6  28         0.0000007081
      6   7   2  42         0.0000007069
      7   6  42   2         0.0000007069
      5   7  18  42        -0.0000006911
      7   5  42  18        -0.0000006911
      0   7  42  22        -0.0000006889
      7   0  22  42        -0.0000006889
      1   4   7   2         0.0000006821
      4   1   2   7         0.0000006821
      0   3  12  20        -0.0000006818
      3   0  20  12        -0.0000006818
      0   2   7  28        -0.0000006737
      2   0  28   7        -0.0000006737
      0   7  43  23         0.0000006732
      7   0  23  43         0.0000006732
      6   7  36  42         0.0000006692
      7   6  42  36         0.0000006692
      2   6  42   8         0.0000006669
      6   2   8  42         0.0000006669
      0   4  43  10        -0.0000006665
      4   0  10  43        -0.0000006665
      0   4  41  28        -0.0000006660
      4   0  28  41        -0.0000006660
      0   3  35  24         0.0000006595
      3   0  24  35         0.0000006595
      0   7  42  19        -0.0000006451
      7   0  19  42        -0.0000006451
      1   5  43  20        -0.0000006430
      5   1  20  43        -0.0000006430
      1   7  42   6        -0.0000006378
      7   1   6  42        -0.0000006378
      2   4  42  26        -0.0000006346
      4   2  26  42        -0.0000006346
      4   7  43  24        -0.0000006197
      7   4  24  43        -0.0000006197
      4   5  42   0         0.0000006159
      5   4   0  42         0.0000006159
      0   6  42  28        -0.0000006153
      6   0  28  42        -0.0000006153
      0   4  24  26         0.0000006121
      4   0  26  24         0.0000006121
      2   7  42   7         0.0000006104
      7   2   7  42         0.0000006104
      1   6  32  23         0.0000006064
      6   1  23  32         0.0000006064
      0   3  31  22         0.0000006056
      3   0  22  31         0.0000006056
      6   7  13  13        -0.0000006047
      7   6  13  13        -0.0000006047
      1   6  30   7         0.0000006034
      6   1   7  30         0.0000006034
      6   7  23   3         0.0000005994
      7   6   3  23         0.0000005994
      1   2   6  39         0.0000005989
      2   1  39   6         0.0000005989
      3   5  17  42        -0.0000005946
      5   3  42  17        -0.0000005946
      1   7  42  27        -0.0000005885
      7   1  27  42        -0.0000005885
      0   4  22  17        -0.0000005839
      4   0  17  22        -0.0000005839
      0   2   9  37        -0.0000005804
      2   0  37   9        -0.0000005804
      1   5  42  17        -0.0000005683
      5   1  17  42        -0.0000005683
      0   0  20  20        -0.0000005581
      4   7  24  43         0.0000005562
      7   4  43  24         0.0000005562
      0   2   2  20         0.0000005560
      2   0  20   2         0.0000005560
      3   5  42  43        -0.0000005481
      5   3  43  42        -0.0000005481
      1   4  32  22         0.0000005459
      4   1  22  32         0.0000005459
      0   7  43   9         0.0000005456
      7   0   9  43         0.0000005456
      1   7  28  35        -0.0000005413
      7   1  35  28        -0.0000005413
      0   7  23   4         0.0000005385
      7   0   4  23         0.0000005385
      0   4  24  37         0.0000005353
      4   0  37  24         0.0000005353
      1   7  43   8         0.0000005132
      7   1   8  43         0.0000005132
      6   6  20  42        -0.0000005094
      6   6  42  20        -0.0000005094
      0   3   1  32        -0.0000005059
      3   0  32   1        -0.0000005059
      1   5  28  27         0.0000004961
      5   1  27  28         0.0000004961
      1   3   5  20         0.0000004947
      3   1  20   5         0.0000004947
      4   5  28  43        -0.0000004914
      5   4  43  28        -0.0000004914
      2   5  40  42        -0.0000004885
      5   2  42  40        -0.0000004885
      5   6  26  13        -0.0000004847
      6   5  13  26        -0.0000004847
      1   2  28   6         0.0000004844
      2   1   6  28         0.0000004844
      1   4  40  28        -0.0000004768
      4   1  28  40        -0.0000004768
      1   1  20  20        -0.0000004690
      0   4  25  19        -0.0000004657
      4   0  19  25        -0.0000004657
      1   4   1   9         0.0000004650
      4   1   9   1         0.0000004650
      0   4  42   0        -0.0000004616
      4   0   0  42        -0.0000004616
      1   4  28   2        -0.0000004603
      4   1   2  28        -0.0000004603
      1   7  40  26        -0.0000004599
      7   1  26  40        -0.0000004599
      0   6  43  14         0.0000004595
      6   0  14  43         0.0000004595
      4   5  28  13        -0.0000004570
      5   4  13  28        -0.0000004570
      1   7  43  22         0.0000004540
      7   1  22  43         0.0000004540
      1   4  28  42         0.0000004511
      4   1  42  28         0.0000004511
      1   4  42  19        -0.0000004465
      4   1  19  42        -0.0000004465
      1   2   5   1         0.0000004464
      2   1   1   5         0.0000004464
      2   3  43  20        -0.0000004378
      3   2  20  43        -0.0000004378
      0   4   2   9         0.0000004367
      4   0   9   2         0.0000004367
      0   5  41  17         0.0000004334
      5   0  17  41         0.0000004334
      4   7  41  42         0.0000004310
      7   4  42  41         0.0000004310
      1   3  20  15        -0.0000004294
      3   1  15  20        -0.0000004294
      0   5  35  16        -0.0000004227
      5   0  16  35        -0.0000004227
      6   7  42   2         0.0000004194
      7   6   2  42         0.0000004194
      1   5  32  35        -0.0000004143
      5   1  35  32        -0.0000004143
      5   6  12   3        -0.0000004141
      6   5   3  12        -0.0000004141
      0   6  43  26         0.0000004101
      6   0  26  43         0.0000004101
      1   4  13   0         0.0000004097
      4   1   0  13         0.0000004097
      5   5  38  43        -0.0000004089
      5   5  43  38        -0.0000004089
      0   1   0  22        -0.0000004001
      1   0  22   0        -0.0000004001
      2   6  43  26        -0.0000003945
      6   2  26  43        -0.0000003945
      2   6  14  43         0.0000003893
      6   2  43  14         0.0000003893
      0   7  42  39        -0.0000003866
      7   0  39  42        -0.0000003866
      0   2  26  37         0.0000003846
      2   0  37  26         0.0000003846
      0   2  37  26         0.0000003835
      2   0  26  37         0.0000003835
      0   6  20  39        -0.0000003824
      6   0  39  20        -0.0000003824
      0   4  12  28        -0.0000003816
      4   0  28  12        -0.0000003816
      1   4  42   8        -0.0000003764
      4   1   8  42        -0.0000003764
      1   5  21  17        -0.0000003740
      5   1  17  21        -0.0000003740
      0   4  28  43         0.0000003723
      4   0  43  28         0.0000003723
      0   5  43  17        -0.0000003688
      5   0  17  43        -0.0000003688
      4   6  17  42        -0.0000003677
      6   4  42  17        -0.0000003677
      1   7  24  14        -0.0000003669
      7   1  14  24        -0.0000003669
      4   4  24  42        -0.0000003618
      4   4  42  24        -0.0000003618
      4   7  43  21        -0.0000003609
      7   4  21  43        -0.0000003609
      1   4  26  12         0.0000003478
      4   1  12  26         0.0000003478
      0   5  17   4        -0.0000003418
      5   0   4  17        -0.0000003418
      1   7  24   3        -0.0000003244
      7   1   3  24        -0.0000003244
      1   5  17  36         0.0000003095
      5   1  36  17         0.0000003095
      0   5  42  24        -0.0000003012
      5   0  24  42        -0.0000003012
      1   3  32  15        -0.0000002986
      3   1  15  32        -0.0000002986
      0   6  20  22        -0.0000002976
      6   0  22  20        -0.0000002976
      0   5  17   1         0.0000002921
      5   0   1  17         0.0000002921
      7   7  36  42        -0.0000002888
      7   7  42  36        -0.0000002888
      0   2  11  32         0.0000002870
      2   0  32  11         0.0000002870
      0   6  43   6        -0.0000002814
      6   0   6  43        -0.0000002814
      0   6  42   7         0.0000002811
      6   0   7  42         0.0000002811
      1   5   6  28        -0.0000002764
      5   1  28   6        -0.0000002764
      5   7  42  22        -0.0000002727
      7   5  22  42        -0.0000002727
      0   6  43   9         0.0000002708
      6   0   9  43         0.0000002708
      0   3  28   6        -0.0000002695
      3   0   6  28        -0.0000002695
      0   3  22  26         0.0000002574
      3   0  26  22         0.0000002574
      1   4  24  19         0.0000002537
      4   1  19  24         0.0000002537
      0   3  20  13        -0.0000002537
      3   0  13  20        -0.0000002537
      0   3  31  34         0.0000002536
      3   0  34  31         0.0000002536
      1   6  19   4         0.0000002428
      6   1   4  19         0.0000002428
      0   4   4  28        -0.0000002397
      4   0  28   4        -0.0000002397
      1   6  24   3        -0.0000002344
      6   1   3  24        -0.0000002344
      0   5  43  16        -0.0000002318
      5   0  16  43        -0.0000002318
      3   5  42  17        -0.0000002271
      5   3  17  42        -0.0000002271
      2   4  42   9         0.0000002256
      4   2   9  42         0.0000002256
      4   4  28  39         0.0000002252
      4   4  39  28         0.0000002252
      4   6  43  32         0.0000002177
      6   4  32  43         0.0000002177
      3   4  28  42         0.0000002172
      4   3  42  28         0.0000002172
      2   7  43  14        -0.0000002150
      7   2  14  43        -0.0000002150
      1   3  21   5        -0.0000002121
      3   1   5  21        -0.0000002121
      4   5  43  28         0.0000002116
      5   4  28  43         0.0000002116
      0   4  43  19         0.0000002092
      4   0  19  43         0.0000002092
      3   6   8  38         0.0000002076
      6   3  38   8         0.0000002076
      3   6  43  28         0.0000002074
      6   3  28  43         0.0000002074
      1   4  43   6         0.0000002024
      4   1   6  43         0.0000002024
      0   3  27  18        -0.0000001962
      3   0  18  27        -0.0000001962
      1   7  33  27        -0.0000001945
      7   1  27  33        -0.0000001945
      1   3  40  20        -0.0000001926
      3   1  20  40        -0.0000001926
      0   6  43  31         0.0000001925
      6   0  31  43         0.0000001925
      0   5  17  13        -0.0000001859
      5   0  13  17        -0.0000001859
      5   7  40  39        -0.0000001811
      7   5  39  40        -0.0000001811
      0   4  42   9         0.0000001794
      4   0   9  42         0.0000001794
      0   5  42  33         0.0000001756
      5   0  33  42         0.0000001756
      0   3   1  20         0.0000001747
      3   0  20   1         0.0000001747
      0   2   3  26        -0.0000001649
      2   0  26   3        -0.0000001649
      1   4  43   9        -0.0000001560
      4   1   9  43        -0.0000001560
      1   4  17  37         0.0000001560
      4   1  37  17         0.0000001560
      2   3  17  42        -0.0000001520
      3   2  42  17        -0.0000001520
      0   3   0  39         0.0000001455
      3   0  39   0         0.0000001455
      6   7   1  43        -0.0000001443
      7   6  43   1        -0.0000001443
      1   5  32  13         0.0000001342
      5   1  13  32         0.0000001342
      5   7  42  10         0.0000001340
      7   5  10  42         0.0000001340
      0   2  32  15         0.0000001296
      2   0  15  32         0.0000001296
      4   5   0  42        -0.0000001292
      5   4  42   0        -0.0000001292
      1   5  28   6         0.0000001245
      5   1   6  28         0.0000001245
      0   7  27  35         0.0000001221
      7   0  35  27         0.0000001221
      1   6  43   8         0.0000001203
      6   1   8  43         0.0000001203
      4   6  20  43        -0.0000001162
      6   4  43  20        -0.0000001162
      0   4  43  28         0.0000001147
      4   0  28  43         0.0000001147
      2   3  27  18         0.0000001145
      3   2  18  27         0.0000001145
      1   4  42  28         0.0000001034
      4   1  28  42         0.0000001034
      0   7  21  39         0.0000000966
      7   0  39  21         0.0000000966
      0   4  43   8        -0.0000000956
      4   0   8  43        -0.0000000956
      0   4   1  28         0.0000000902
      4   0  28   1         0.0000000902
      1   2  22  31         0.0000000885
      2   1  31  22         0.0000000885
      0   7  43  14         0.0000000848
      7   0  14  43         0.0000000848
      0   3  15  35        -0.0000000823
      3   0  35  15        -0.0000000823
      0   5  42  20        -0.0000000798
      5   0  20  42        -0.0000000798
      2   7   7  42        -0.0000000744
      7   2  42   7        -0.0000000744
      1   4  28  40         0.0000000733
      4   1  40  28         0.0000000733
      0   4  27  36        -0.0000000695
      4   0  36  27        -0.0000000695
      3   5  17   5        -0.0000000605
      5   3   5  17        -0.0000000605
      0   3  32   4        -0.0000000548
      3   0   4  32        -0.0000000548
      0   6  43  27         0.0000000542
      6   0  27  43         0.0000000542
      1   2  14  28        -0.0000000410
      2   1  28  14        -0.0000000410
      0   7  43   6        -0.0000000397
      7   0   6  43        -0.0000000397
      1   7   4  10        -0.0000000383
      7   1  10   4        -0.0000000383
      0   4  11   9         0.0000000317
      4   0   9  11         0.0000000317
      1   4   2   8        -0.0000000310
      4   1   8   2        -0.0000000310
      1   5  11  17        -0.0000000286
      5   1  17  11        -0.0000000286
      0   6  38   9        -0.0000000284
      6   0   9  38        -0.0000000284
      0   6  22  15         0.0000000235
      6   0  15  22         0.0000000235
      0   5  42  36         0.0000000185
      5   0  36  42         0.0000000185
      1   4  42  10        -0.0000000168
      4   1  10  42        -0.0000000168

    SCF energy       (wfn)                    =  -78.041842226965059
    Reference energy (file100)                =  -78.041842226964889

    Opposite-spin MP2 correlation energy      =   -0.243887083134569
    Same-spin MP2 correlation energy          =   -0.060319231626349
    MP2 correlation energy                    =   -0.304206314760918
      * MP2 total energy                      =  -78.346048541725807

    Opposite-spin CCSD correlation energy     =   -0.280375471154618
    Same-spin CCSD correlation energy         =   -0.054912595056179
    CCSD correlation energy                   =   -0.335288066210796
      * CCSD total energy                     =  -78.377130293175682


*** tstop() called on Berts-MacBook-Pro.local at Wed Dec  6 21:33:07 2017
Module time:
	user time   =     148.03 seconds =       2.47 minutes
	system time =       2.77 seconds =       0.05 minutes
	total time  =        151 seconds =       2.52 minutes
Total time:
	user time   =     204.32 seconds =       3.41 minutes
	system time =       3.92 seconds =       0.07 minutes
	total time  =        209 seconds =       3.48 minutes

*** Psi4 exiting successfully. Buy a developer a beer!
