
    -----------------------------------------------------------------------
          Psi4: An Open-Source Ab Initio Electronic Structure Package
                               Psi4 1.1 release

                         Git: Rev {HEAD} add49b9 


    R. M. Parrish, L. A. Burns, D. G. A. Smith, A. C. Simmonett,
    A. E. DePrince III, E. G. Hohenstein, U. Bozkaya, A. Yu. Sokolov,
    R. Di Remigio, R. M. Richard, J. F. Gonthier, A. M. James,
    H. R. McAlexander, A. Kumar, M. Saitow, X. Wang, B. P. Pritchard,
    P. Verma, H. F. Schaefer III, K. Patkowski, R. A. King, E. F. Valeev,
    F. A. Evangelista, J. M. Turney, T. D. Crawford, and C. D. Sherrill,
    J. Chem. Theory Comput. in press (2017).
    (doi: 10.1021/acs.jctc.7b00174)

    -----------------------------------------------------------------------


    Psi4 started on: Wednesday, 06 December 2017 09:22PM

    Process ID:  11909
    PSIDATADIR: /anaconda3/share/psi4
    Memory:     500.0 MiB
    Threads:    1
    
  ==> Input File <==

--------------------------------------------------------------------------
"""This is a template for psi4 input format."""
import numpy
import sys

from openfermion.config import *
from openfermion.ops._interaction_tensor import (one_body_basis_change,
                                              two_body_basis_change)
from openfermion.hamiltonians import MolecularData
from numpy import array

sys.path.append('/Users/wadejong/Desktop/Quantum-Computing/OpenFermion/OpenFermion-Psi4/openfermionpsi4')
from _psi4_conversion_functions import *

# Set number of threads in PSI4
set_num_threads(8)

# Set memory that job can use in megabytes.
memory 8000 mb

# Initialize molecular data.
_description = 'ethylene_0.15708'
if _description == 'None':
    _description = None
molecule = MolecularData([['C', array([ 0.      ,  0.      ,  0.673055])], ['C', array([ 0.      ,  0.      , -0.673055])], ['H', array([ 0.      ,  0.934981,  1.246807])], ['H', array([ 0.      , -0.934981,  1.246807])], ['H', array([ 0.14626325, -0.92346983, -1.246807  ])], ['H', array([-0.14626325,  0.92346983, -1.246807  ])]],
                         'DZP',
                         1,
                         0,
                         _description,
                          filename='/Users/wadejong/Desktop/QCQCSiddiqi/8_Qubit_Simulation/data/H4-C2_DZP_singlet_ethylene_0.15708')

# Set molecular geometry and symmetry.
molecule mol {
C 0.0 0.0 0.673055
C 0.0 0.0 -0.673055
H 0.0 0.934981 1.246807
H 0.0 -0.934981 1.246807
H 0.14626325255778008 -0.9234698323779824 -1.246807
H -0.14626325255778008 0.9234698323779824 -1.246807
symmetry c1
}
mol.set_multiplicity(1)
mol.set_molecular_charge(0)

# Set reference and guess.
if molecule.multiplicity == 1:
    set reference rhf
    set guess sad
    set sad_frac_occ true
else:
    set reference rohf
    set guess sad
    set sad_frac_occ true

# Set global parameters of calculation.
set globals {
    basis DZP
    freeze_core false
    fail_on_maxiter true
    df_scf_guess false
    guess sad
    sad_frac_occ true
    opdm false
    tpdm false
    soscf true
    scf_type pk
    diis true
    maxiter 1e6
    num_amps_print 1e6
    r_convergence 1e-7
    d_convergence 1e-7
    e_convergence 1e-7
    ints_tolerance EQUALITY_TOLERANCE
    damping_percentage 0
}

# Run self-consistent field (SCF) calculation.
if True:
    try:

        hf_energy, hf_wavefunction = energy('scf', return_wfn=True)
        scf_wfn = hf_wavefunction
        if True:
            print('Hartree-Fock energy for {} ({} electrons) is {}.'.format(
                molecule.name, molecule.n_electrons, hf_energy))
    except:
        if True:
            print('WARNING: SCF calculation failed.')
        else:
            raise
    else:
        # Get orbitals and Fock matrix.
        molecule.hf_energy = hf_energy
        molecule.nuclear_repulsion = mol.nuclear_repulsion_energy()
        molecule.canonical_orbitals = numpy.asarray(hf_wavefunction.Ca())
        molecule.n_orbitals = molecule.canonical_orbitals.shape[0]
        molecule.n_qubits = 2 * molecule.n_orbitals
        molecule.orbital_energies = numpy.asarray(hf_wavefunction.epsilon_a())
        molecule.fock_matrix = numpy.asarray(hf_wavefunction.Fa())

        # Get integrals using MintsHelper.
        mints = MintsHelper(hf_wavefunction.basisset())
        molecule.one_body_integrals = one_body_basis_change(
            numpy.asarray(mints.ao_kinetic()), molecule.canonical_orbitals)
        molecule.one_body_integrals += one_body_basis_change(
            numpy.asarray(mints.ao_potential()), molecule.canonical_orbitals)
        two_body_integrals = numpy.asarray(mints.ao_eri())
        two_body_integrals.reshape((molecule.n_orbitals, molecule.n_orbitals,
                                    molecule.n_orbitals, molecule.n_orbitals))
        two_body_integrals = numpy.einsum('psqr', two_body_integrals)
        two_body_integrals = two_body_basis_change(
            two_body_integrals, molecule.canonical_orbitals)
        molecule.two_body_integrals = two_body_integrals
        molecule.save()


# Perform MP2 energy calculation if there are at least two electrons.
if True:
    try:
        assert molecule.n_electrons > 1
        mp2_energy = energy('mp2',ref_wfn=scf_wfn)
        if True:
            print('MP2 energy for {} ({} electrons) is {}.'.format(
                molecule.name, molecule.n_electrons, mp2_energy))
    except:
        if True:
            print('WARNING: MP2 calculation failed.')
        else:
            raise
    else:
        molecule.mp2_energy = mp2_energy
        molecule.save()


# Perform configuration interaction singles and doubles (CISD) calculation.
if True:
    set qc_module detci
    try:
        cisd_energy, cisd_wavefunction = energy('cisd', ref_wfn=scf_wfn, return_wfn=True)
        if True:
            print('CISD energy for {} ({} electrons) is {}.'.format(
                molecule.name, molecule.n_electrons, cisd_energy))
    except:
        if True:
            print('WARNING: CISD calculation failed.')
        else:
            raise
    else:
        # For the functions below, "a" and "b" refer to "up and "down" spins.
        molecule.cisd_energy = cisd_energy

        # Get 1-RDM from CISD calculation.
        """cisd_one_rdm_a = numpy.array(cisd_wavefunction.get_opdm(
            0, 0, 'A', True)).reshape(molecule.n_orbitals, molecule.n_orbitals)
        cisd_one_rdm_b = numpy.array(cisd_wavefunction.get_opdm(
            0, 0, 'B', True)).reshape(molecule.n_orbitals, molecule.n_orbitals)

        # Get 2-RDM from CISD calculation.
        cisd_two_rdm_aa = numpy.array(cisd_wavefunction.get_tpdm(
            'AA', False)).reshape(molecule.n_orbitals, molecule.n_orbitals,
                                  molecule.n_orbitals, molecule.n_orbitals)
        cisd_two_rdm_ab = numpy.array(cisd_wavefunction.get_tpdm(
            'AB', False)).reshape(molecule.n_orbitals, molecule.n_orbitals,
                                  molecule.n_orbitals, molecule.n_orbitals)
        cisd_two_rdm_bb = numpy.array(cisd_wavefunction.get_tpdm(
            'BB', False)).reshape(molecule.n_orbitals, molecule.n_orbitals,
                                  molecule.n_orbitals, molecule.n_orbitals)

        # Get overall RDMs.
        cisd_one_rdm, cisd_two_rdm = unpack_spatial_rdm(
            cisd_one_rdm_a, cisd_one_rdm_b, cisd_two_rdm_aa,
            cisd_two_rdm_ab, cisd_two_rdm_bb)

        # Store 1-RDM in molecule file, 2-RDM separately in other file.
        molecule.cisd_one_rdm = cisd_one_rdm
        molecule.cisd_two_rdm = cisd_two_rdm
        molecule.save()"""


# Perform exact diagonalization.
if False:
    set qc_module detci
    try:
        fci_energy, fci_wavefunction = energy('fci', ref_wfn=scf_wfn, return_wfn=True)
        if True:
            print('FCI energy for {} ({} electrons) is {}.'.format(
                molecule.name, molecule.n_electrons, fci_energy))
    except:
        if True:
            print('WARNING: FCI calculation failed.')
        else:
            raise
    else:
        # For the functions below, "a" and "b" refer to "up and "down" spins.
        molecule.fci_energy = fci_energy

        # Get 1-RDM from FCI calculation.
        """fci_one_rdm_a = numpy.array(fci_wavefunction.get_opdm(
            0, 0, 'A', True)).reshape(molecule.n_orbitals, molecule.n_orbitals)
        fci_one_rdm_b = numpy.array(fci_wavefunction.get_opdm(
            0, 0, 'B', True)).reshape(molecule.n_orbitals, molecule.n_orbitals)

        # Get 2-RDM from FCI calculation.
        fci_two_rdm_aa = numpy.array(fci_wavefunction.get_tpdm(
            'AA', False)).reshape(molecule.n_orbitals, molecule.n_orbitals,
                                  molecule.n_orbitals, molecule.n_orbitals)
        fci_two_rdm_ab = numpy.array(fci_wavefunction.get_tpdm(
            'AB', False)).reshape(molecule.n_orbitals, molecule.n_orbitals,
                                  molecule.n_orbitals, molecule.n_orbitals)
        fci_two_rdm_bb = numpy.array(fci_wavefunction.get_tpdm(
            'BB', False)).reshape(molecule.n_orbitals, molecule.n_orbitals,
                                  molecule.n_orbitals, molecule.n_orbitals)

        # Get overall RDMs.
        fci_one_rdm, fci_two_rdm = unpack_spatial_rdm(
            fci_one_rdm_a, fci_one_rdm_b,
            fci_two_rdm_aa, fci_two_rdm_ab, fci_two_rdm_bb)

        # Store 1-RDM in molecule file, 2-RDM separately in other file.
        molecule.fci_one_rdm = fci_one_rdm
        molecule.fci_two_rdm = fci_two_rdm
        molecule.save()"""


# Perform coupled cluster singles and doubles (CCSD) calculation.
if True:
    set qc_module ccenergy
    try:
        ccsd_energy = energy('ccsd',ref_wfn=scf_wfn)
        if True:
            print('CCSD energy for {} ({} electrons) is {}.'.format(
                molecule.name, molecule.n_electrons, ccsd_energy))
    except:
        if True:
            print('WARNING: CCSD calculation failed.')
        else:
            raise
    else:
        molecule.ccsd_energy = ccsd_energy

        # Merge CC amplitudes into molecule by parsing
        psi_filename = outfile_name()
        ccsd_amplitudes = parse_psi4_ccsd_amplitudes(
            2 * molecule.n_orbitals,
            molecule.get_n_alpha_electrons(),
            molecule.get_n_beta_electrons(),
            psi_filename)
        molecule.ccsd_amplitudes = ccsd_amplitudes
        molecule.save()
--------------------------------------------------------------------------
  Python driver attempted to set threads to 8.
  Psi4 was compiled without OpenMP, setting threads to 1.

  Memory set to   7.451 GiB by Python driver.

*** tstart() called on Berts-MacBook-Pro.local
*** at Wed Dec  6 21:22:29 2017

   => Loading Basis Set <=

    Name: DZP
    Role: ORBITAL
    Keyword: BASIS
    atoms 1-2 entry C          line    73 file /anaconda3/share/psi4/basis/dzp.gbs 
    atoms 3-6 entry H          line    16 file /anaconda3/share/psi4/basis/dzp.gbs 


         ---------------------------------------------------------
                                   SCF
            by Justin Turney, Rob Parrish, and Andy Simmonett
                              RHF Reference
                        1 Threads,   7629 MiB Core
         ---------------------------------------------------------

  ==> Geometry <==

    Molecular point group: c1
    Full point group: D2

    Geometry (in Angstrom), charge = 0, multiplicity = 1:

       Center              X                  Y                   Z               Mass       
    ------------   -----------------  -----------------  -----------------  -----------------
           C          0.000000000000     0.000000000000     0.673055000000    12.000000000000
           C          0.000000000000     0.000000000000    -0.673055000000    12.000000000000
           H          0.073357763783     0.932098765611     1.246807000000     1.007825032070
           H         -0.073357763783    -0.932098765611     1.246807000000     1.007825032070
           H          0.073357763783    -0.932098765611    -1.246807000000     1.007825032070
           H         -0.073357763783     0.932098765611    -1.246807000000     1.007825032070

  Running in c1 symmetry.

  Rotational constants: A =      4.78350  B =      0.98235  C =      0.81670 [cm^-1]
  Rotational constants: A = 143405.72603  B =  29450.07387  C =  24483.91427 [MHz]
  Nuclear repulsion =   33.006568809938301

  Charge       = 0
  Multiplicity = 1
  Electrons    = 16
  Nalpha       = 8
  Nbeta        = 8

  ==> Algorithm <==

  SCF Algorithm Type is PK.
  DIIS enabled.
  MOM disabled.
  Fractional occupation disabled.
  Guess Type is SAD.
  Energy threshold   = 1.00e-07
  Density threshold  = 1.00e-07
  Integral threshold = 0.00e+00

  ==> Primary Basis <==

  Basis Set: DZP
    Blend: DZP
    Number of shells: 26
    Number of basis function: 52
    Number of Cartesian functions: 52
    Spherical Harmonics?: false
    Max angular momentum: 2

  ==> Pre-Iterations <==

   -------------------------------------------------------
    Irrep   Nso     Nmo     Nalpha   Nbeta   Ndocc  Nsocc
   -------------------------------------------------------
     A         52      52       0       0       0       0
   -------------------------------------------------------
    Total      52      52       8       8       8       0
   -------------------------------------------------------

  ==> Integral Setup <==

  Using in-core PK algorithm.
   Calculation information:
      Number of atoms:                   6
      Number of AO shells:              26
      Number of primitives:             50
      Number of atomic orbitals:        52
      Number of basis functions:        52

      Integral cutoff                 1.00e-12
      Number of threads:                 1

  Performing in-core PK
  Using 1900262 doubles for integral storage.
  We computed 61760 shell quartets total.
  Whereas there are 61776 unique shell quartets.
  ==> DiskJK: Disk-Based J/K Matrices <==

    J tasked:                  Yes
    K tasked:                  Yes
    wK tasked:                  No
    Memory (MB):              5722
    Schwarz Cutoff:          1E-12

    OpenMP threads:              1
  Minimum eigenvalue in the overlap matrix is 4.3267468723E-03.
  Using Symmetric Orthogonalization.

  SCF Guess: Superposition of Atomic Densities via on-the-fly atomic UHF.

  ==> Iterations <==

                        Total Energy        Delta E     RMS |[F,P]|

   @RHF iter   0:   -69.16286166810204   -6.91629e+01   1.01510e-01 
   @RHF iter   1:   -74.35909838838862   -5.19624e+00   3.98737e-02 
   @RHF iter   2:   -77.23292678924069   -2.87383e+00   2.36804e-02 DIIS/DAMP
   @RHF iter   3:   -78.03627937048577   -8.03353e-01   2.32404e-03 DIIS/DAMP
   @RHF iter   4:   -78.04668499069363   -1.04056e-02   3.84853e-04 SOSCF, nmicro = 4/DAMP
   @RHF iter   5:   -78.04714685395567   -4.61863e-04   1.84160e-06 SOSCF, nmicro = 4/DAMP
   @RHF iter   6:   -78.04714686089689   -6.94122e-09   2.41583e-09 SOSCF, conv/DAMP

  ==> Post-Iterations <==

    Orbital Energies (a.u.)
    -----------------------

    Doubly Occupied:                                                      

       1A    -11.244862     2A    -11.243303     3A     -1.026900  
       4A     -0.787858     5A     -0.635512     6A     -0.582018  
       7A     -0.505083     8A     -0.369841  

    Virtual:                                                              

       9A      0.145715    10A      0.257599    11A      0.287601  
      12A      0.358627    13A      0.394374    14A      0.413035  
      15A      0.444033    16A      0.473421    17A      0.486606  
      18A      0.611819    19A      0.664704    20A      0.669855  
      21A      0.825464    22A      1.029201    23A      1.195279  
      24A      1.202569    25A      1.322873    26A      1.532557  
      27A      1.568993    28A      1.573849    29A      1.670668  
      30A      1.924680    31A      2.065143    32A      2.071158  
      33A      2.073488    34A      2.158780    35A      2.223438  
      36A      2.420133    37A      2.475702    38A      2.539585  
      39A      2.600760    40A      2.779026    41A      2.819832  
      42A      2.919392    43A      2.964364    44A      3.198617  
      45A      3.317613    46A      3.494114    47A      3.612914  
      48A      3.905309    49A      4.209953    50A      4.551991  
      51A     27.624878    52A     27.663713  

    Final Occupation by Irrep:
              A 
    DOCC [     8 ]

  Energy converged.

  @RHF Final Energy:   -78.04714686089689

   => Energetics <=

    Nuclear Repulsion Energy =             33.0065688099383010
    One-Electron Energy =                -169.3166774035305195
    Two-Electron Energy =                  58.2629617326953309
    DFT Exchange-Correlation Energy =       0.0000000000000000
    Empirical Dispersion Energy =           0.0000000000000000
    PCM Polarization Energy =               0.0000000000000000
    EFP Energy =                            0.0000000000000000
    Total Energy =                        -78.0471468608968877



Properties will be evaluated at   0.000000,   0.000000,   0.000000 Bohr

Properties computed using the SCF density matrix

  Nuclear Dipole Moment: (a.u.)
     X:     0.0000      Y:     0.0000      Z:     0.0000

  Electronic Dipole Moment: (a.u.)
     X:     0.0000      Y:     0.0000      Z:     0.0000

  Dipole Moment: (a.u.)
     X:     0.0000      Y:     0.0000      Z:     0.0000     Total:     0.0000

  Dipole Moment: (Debye)
     X:     0.0000      Y:     0.0000      Z:     0.0000     Total:     0.0000


*** tstop() called on Berts-MacBook-Pro.local at Wed Dec  6 21:22:30 2017
Module time:
	user time   =       0.38 seconds =       0.01 minutes
	system time =       0.06 seconds =       0.00 minutes
	total time  =          1 seconds =       0.02 minutes
Total time:
	user time   =       0.38 seconds =       0.01 minutes
	system time =       0.06 seconds =       0.00 minutes
	total time  =          1 seconds =       0.02 minutes

*** tstart() called on Berts-MacBook-Pro.local
*** at Wed Dec  6 21:22:34 2017


  //>>>>>>>>>>>>>>>>>>>>>>>>>>>>>>>>>>>//
  //               DFMP2               //
  //<<<<<<<<<<<<<<<<<<<<<<<<<<<<<<<<<<<//

   => Loading Basis Set <=

    Name: (DZP AUX)
    Role: RIFIT
    Keyword: DF_BASIS_MP2
    atoms 1-2 entry C          line   269 file /anaconda3/share/psi4/basis/def2-qzvpp-ri.gbs 
    atoms 3-6 entry H          line    23 file /anaconda3/share/psi4/basis/def2-qzvpp-ri.gbs 

	 --------------------------------------------------------
	                          DF-MP2                         
	      2nd-Order Density-Fitted Moller-Plesset Theory     
	              RMP2 Wavefunction,   1 Threads             
	                                                         
	        Rob Parrish, Justin Turney, Andy Simmonett,      
	           Ed Hohenstein, and C. David Sherrill          
	 --------------------------------------------------------

   => Auxiliary Basis Set <=

  Basis Set: (DZP AUX)
    Blend: DEF2-QZVPP-RI
    Number of shells: 130
    Number of basis function: 506
    Number of Cartesian functions: 666
    Spherical Harmonics?: true
    Max angular momentum: 5

	 --------------------------------------------------------
	                 NBF =    52, NAUX =   506
	 --------------------------------------------------------
	   CLASS    FOCC     OCC    AOCC    AVIR     VIR    FVIR
	   PAIRS       0       8       8      44      44       0
	 --------------------------------------------------------

	-----------------------------------------------------------
	 ==================> DF-MP2 Energies <==================== 
	-----------------------------------------------------------
	 Reference Energy          =     -78.0471468608968877 [Eh]
	 Singles Energy            =      -0.0000000000000000 [Eh]
	 Same-Spin Energy          =      -0.0602363876611430 [Eh]
	 Opposite-Spin Energy      =      -0.2435252660535553 [Eh]
	 Correlation Energy        =      -0.3037616537146983 [Eh]
	 Total Energy              =     -78.3509085146115893 [Eh]
	-----------------------------------------------------------
	 ================> DF-SCS-MP2 Energies <================== 
	-----------------------------------------------------------
	 SCS Same-Spin Scale       =       0.3333333333333333 [-]
	 SCS Opposite-Spin Scale   =       1.2000000000000000 [-]
	 SCS Same-Spin Energy      =      -0.0200787958870477 [Eh]
	 SCS Opposite-Spin Energy  =      -0.2922303192642663 [Eh]
	 SCS Correlation Energy    =      -0.3123091151513140 [Eh]
	 SCS Total Energy          =     -78.3594559760481957 [Eh]
	-----------------------------------------------------------


*** tstop() called on Berts-MacBook-Pro.local at Wed Dec  6 21:22:34 2017
Module time:
	user time   =       0.29 seconds =       0.00 minutes
	system time =       0.05 seconds =       0.00 minutes
	total time  =          0 seconds =       0.00 minutes
Total time:
	user time   =       4.65 seconds =       0.08 minutes
	system time =       0.26 seconds =       0.00 minutes
	total time  =          5 seconds =       0.08 minutes
 MINTS: Wrapper to libmints.
   by Justin Turney

   Calculation information:
      Number of threads:                 1
      Number of atoms:                   6
      Number of AO shells:              26
      Number of SO shells:              26
      Number of primitives:             50
      Number of atomic orbitals:        52
      Number of basis functions:        52

      Number of irreps:                  1
      Integral cutoff                 0.00e+00
      Number of functions per irrep: [  52 ]

 OEINTS: Overlap, kinetic, potential, dipole, and quadrupole integrals
         stored in file 35.

      Computing two-electron integrals...done
      Computed 840459 non-zero two-electron integrals.
        Stored in file 33.


         ---------------------------------------------------------
                          Configuration Interaction
                            (a 'D E T C I' module)

                 C. David Sherrill, Daniel G. A. Smith, and
                              Matt L. Leininger
         ---------------------------------------------------------


   ==> Parameters <==

    EX LEVEL       =        2      H0 BLOCKSIZE  =     1000
    VAL EX LEVEL   =        0      H0 GUESS SIZE =     1000
    H0COUPLINGSIZE =        0      H0 COUPLING   =       NO
    MAXITER        =       24      NUM PRINT     =       20
    NUM ROOTS      =        1      ICORE         =        1
    PRINT LVL      =        1      FCI           =       NO
    R CONV         = 1.00e-07      MIXED         =      YES
    E CONV         = 1.00e-07      MIXED4        =      YES
    R4S            =       NO      REPL OTF      =       NO
    DIAG METHOD    =      SEM      FOLLOW ROOT   =        0
    PRECONDITIONER = DAVIDSON      UPDATE        = DAVIDSON
    S              =   0.0000      Ms0           =      YES
    GUESS VECTOR   =  H0BLOCK      OPENTYPE      =     NONE
    COLLAPSE SIZE  =        1      HD AVG        = EVANGELISTI
    MAX NUM VECS   =       25      REF SYM       =     AUTO
    IOPEN        =       NO

    EX ALLOW       =  1  1 
    STATE AVERAGE  =  0(1.00) 

   ==> CI Orbital and Space information <==

    RAS1 LVL      =        7      A RAS3 MAX    =        2
    RAS1 MIN      =       14      B RAS3 MAX    =        2
    A RAS1 LVL    =        7      RAS4 LVL      =       52
    A RAS1 MIN    =        6      A RAS4 MAX    =        0
    A RAS1 MAX    =        8      B RAS4 MAX    =        0
    B RAS1 LVL    =        7      RAS4 MAX      =        0
    B RAS1 MIN    =        6      A RAS34 MAX   =        2
    B RAS1 MAX    =        8      B RAS34 MAX   =        2
    RAS3 LVL      =        8      RAS34 MAX     =        2
    RAS3 MAX      =        2
   ------------------------------------
               Space    Total     A
   ------------------------------------
                 Nso       52    52
                 Nmo       52    52
               Ndocc        8     8
               Nsocc        0     0
   ------------------------------------
              CI Spaces
   ------------------------------------
        Dropped DOCC        0     0
                RAS1        8     8
                RAS2        0     0
                RAS3       44    44
                RAS4        0     0
      Active (total)       52    52
        Dropped UOCC        0     0
   ------------------------------------

   ==> Setting up CI strings <==

    There are 26841 alpha and 26841 beta strings
    The CI space requires 177585 (1.78E+05) determinants and 6 blocks

   ==> Transforming CI integrals <==

	Presorting SO-basis two-electron integrals.
	Sorting File: SO Ints (nn|nn) nbuckets = 1
	Transforming the one-electron integrals and constructing Fock matrices
	Starting first half-transformation.
	Sorting half-transformed integrals.
	First half integral transformation complete.
	Starting second half-transformation.
	Two-electron integral transformation complete.

   ==> Starting CI iterations <==

    H0 Block Eigenvalue = -78.08215484

    Simultaneous Expansion Method (Block Davidson Method)
    Using 1 initial trial vectors

     Iter   Root       Total Energy       Delta E      C RMS

   @CI  0:     0    -78.082154836530   -1.1109E+02   1.5413E+00  
   @CI  1:     0    -78.344493994599   -2.6234E-01   1.5176E-01  
   @CI  2:     0    -78.353819451687   -9.3255E-03   4.2946E-02  
   @CI  3:     0    -78.354408800691   -5.8935E-04   9.1535E-03  
   @CI  4:     0    -78.354439326520   -3.0526E-05   2.4834E-03  
   @CI  5:     0    -78.354440936337   -1.6098E-06   5.2523E-04  
   @CI  6:     0    -78.354441022992   -8.6655E-08   1.3719E-04  
   @CI  7:     0    -78.354441027917   -4.9248E-09   3.0351E-05  
   @CI  8:     0    -78.354441028207   -2.9064E-10   8.2319E-06  
   @CI  9:     0    -78.354441028229   -2.1828E-11   2.3011E-06  
   @CI 10:     0    -78.354441028231   -1.4637E-12   4.9980E-07  
    Warning: Norm of correction (root 0) is < 1.0E-13
   @CI 11:     0    -78.354441028231   -7.1054E-14   1.1990E-07  
    Warning: Norm of correction (root 0) is < 1.0E-13
   @CI 12:     0    -78.354441028231   1.4211E-14   2.5002E-08 c

   ==> Energetics <==

    SCF energy =            0.000000000000000
    Total CI energy =     -78.354441028230681

   ==> CISD root 0 information <==

    CISD Root 0 energy =   -78.354441028230681

   The 20 most important determinants:

    *   1   -0.951477  (    0,    0)  1AX 2AX 3AX 4AX 5AX 6AX 7AX 8AX 
    *   2    0.092613  (    1,    1)  1AX 2AX 3AX 4AX 5AX 6AX 7AX 9AX 
    *   3    0.042906  (    1,   73)  1AX 2AX 3AX 4AX 5AX 6AX 7AX 9AA 18AB 
    *   4    0.042906  (   73,    1)  1AX 2AX 3AX 4AX 5AX 6AX 7AX 9AB 18AA 
    *   5    0.028325  (   73,   73)  1AX 2AX 3AX 4AX 5AX 6AX 7AX 18AX 
    *   6    0.026997  (   99,   99)  1AX 2AX 3AX 4AX 5AX 7AX 8AX 21AX 
    *   7    0.025623  (    1,   99)  1AX 2AX 3AX 4AX 5AX 6AA 7AX 8AB 9AA 21AB 
    *   8    0.025623  (   99,    1)  1AX 2AX 3AX 4AX 5AX 6AB 7AX 8AA 9AB 21AA 
    *   9    0.023467  (   65,   65)  1AX 2AX 3AX 4AX 5AX 6AX 7AX 17AX 
    *  10    0.022807  (    0, 2202)  1AX 2AX 3AX 4AX 5AX 6AA 7AX 8AA 9AB 21AB 
    *  11    0.022807  ( 2202,    0)  1AX 2AX 3AX 4AX 5AX 6AB 7AX 8AB 9AA 21AA 
    *  12    0.022516  (   26,   26)  1AX 2AX 3AX 4AX 5AX 6AX 8AX 12AX 
    *  13    0.021134  (   28,   28)  1AX 2AX 3AX 4AX 6AX 7AX 8AX 12AX 
    *  14    0.019583  (   73,   99)  1AX 2AX 3AX 4AX 5AX 6AA 7AX 8AB 18AA 21AB 
    *  15    0.019583  (   99,   73)  1AX 2AX 3AX 4AX 5AX 6AB 7AX 8AA 18AB 21AA 
    *  16   -0.018814  (    0,   65)  1AX 2AX 3AX 4AX 5AX 6AX 7AX 8AA 17AB 
    *  17   -0.018814  (   65,    0)  1AX 2AX 3AX 4AX 5AX 6AX 7AX 8AB 17AA 
    *  18    0.018152  (    5,    5)  1AX 2AX 3AX 5AX 6AX 7AX 8AX 9AX 
    *  19    0.017971  (   43,   43)  1AX 2AX 3AX 4AX 5AX 7AX 8AX 14AX 
    *  20    0.016888  (   34,   34)  1AX 2AX 3AX 4AX 5AX 6AX 8AX 13AX 

		 "A good bug is a dead bug" 

			 - Starship Troopers

		 "I didn't write FORTRAN.  That's the problem."

			 - Edward Valeev
 MINTS: Wrapper to libmints.
   by Justin Turney

   Calculation information:
      Number of threads:                 1
      Number of atoms:                   6
      Number of AO shells:              26
      Number of SO shells:              26
      Number of primitives:             50
      Number of atomic orbitals:        52
      Number of basis functions:        52

      Number of irreps:                  1
      Integral cutoff                 0.00e+00
      Number of functions per irrep: [  52 ]

 OEINTS: Overlap, kinetic, potential, dipole, and quadrupole integrals
         stored in file 35.

      Computing two-electron integrals...done
      Computed 840459 non-zero two-electron integrals.
        Stored in file 33.


*** tstart() called on Berts-MacBook-Pro.local
*** at Wed Dec  6 21:23:26 2017


	Wfn Parameters:
	--------------------
	Wavefunction         = CCSD
	Number of irreps     = 1
	Number of MOs        = 52
	Number of active MOs = 52
	AO-Basis             = NONE
	Semicanonical        = false
	Reference            = RHF
	Print Level          = 1

	IRREP	# MOs	# FZDC	# DOCC	# SOCC	# VIRT	# FZVR
	-----	-----	------	------	------	------	------
	 A	   52	    0	    8	    0	    44	    0
	Transforming integrals...
	IWL integrals will be deleted.
	(OO|OO)...
	Presorting SO-basis two-electron integrals.
	Sorting File: SO Ints (nn|nn) nbuckets = 1
	Transforming the one-electron integrals and constructing Fock matrices
	Starting first half-transformation.
	Sorting half-transformed integrals.
	First half integral transformation complete.
	Starting second half-transformation.
	Two-electron integral transformation complete.
	(OO|OV)...
	Starting second half-transformation.
	Two-electron integral transformation complete.
	(OO|VV)...
	Starting second half-transformation.
	Two-electron integral transformation complete.
	(OV|OO)...
	Starting first half-transformation.
	Sorting half-transformed integrals.
	First half integral transformation complete.
	Starting second half-transformation.
	Two-electron integral transformation complete.
	(OV|OV)...
	Starting second half-transformation.
	Two-electron integral transformation complete.
	(OV|VV)...
	Starting second half-transformation.
	Two-electron integral transformation complete.
	(VV|OO)...
	Starting first half-transformation.
	Sorting half-transformed integrals.
	First half integral transformation complete.
	Starting second half-transformation.
	Two-electron integral transformation complete.
	(VV|OV)...
	Starting second half-transformation.
	Two-electron integral transformation complete.
	(VV|VV)...
	Starting second half-transformation.
	Two-electron integral transformation complete.
	Frozen core energy     =      0.00000000000000

	Size of irrep 0 of <ab|cd> integrals:      3.748 (MW) /     29.985 (MB)
	Total:                                     3.748 (MW) /     29.985 (MB)

	Size of irrep 0 of <ia|bc> integrals:      0.681 (MW) /      5.452 (MB)
	Total:                                     0.681 (MW) /      5.452 (MB)

	Size of irrep 0 of tijab amplitudes:       0.124 (MW) /      0.991 (MB)
	Total:                                     0.124 (MW) /      0.991 (MB)

	Nuclear Rep. energy          =     33.00656880993830
	SCF energy                   =    -78.04714686089689
	One-electron energy          =   -169.31667747767557
	Two-electron energy          =     58.26296180684052
	Reference energy             =    -78.04714686089675

*** tstop() called on Berts-MacBook-Pro.local at Wed Dec  6 21:23:27 2017
Module time:
	user time   =       0.27 seconds =       0.00 minutes
	system time =       0.40 seconds =       0.01 minutes
	total time  =          1 seconds =       0.02 minutes
Total time:
	user time   =      56.19 seconds =       0.94 minutes
	system time =       1.28 seconds =       0.02 minutes
	total time  =         58 seconds =       0.97 minutes

*** tstart() called on Berts-MacBook-Pro.local
*** at Wed Dec  6 21:23:27 2017

            **************************
            *                        *
            *        CCENERGY        *
            *                        *
            **************************

    Nuclear Rep. energy (wfn)     =   33.006568809938301
    SCF energy          (wfn)     =  -78.047146860896888
    Reference energy    (file100) =  -78.047146860896746

    Input parameters:
    -----------------
    Wave function   =     CCSD
    Reference wfn   =     RHF
    Brueckner       =     No
    Memory (Mbytes) =     8000.0
    Maxiter         =   1000000
    R_Convergence   =     1.0e-07
    E_Convergence   =     1.0e-07
    Restart         =     Yes
    DIIS            =     Yes
    AO Basis        =     NONE
    ABCD            =     NEW
    Cache Level     =     2
    Cache Type      =     LOW
    Print Level     =     1
    Num. of threads =     1
    # Amps to Print =     1000000
    Print MP2 Amps? =     No
    Analyze T2 Amps =     No
    Print Pair Ener =     No
    Local CC        =     No
    SCS-MP2         =     False
    SCSN-MP2        =     False
    SCS-CCSD        =     False

MP2 correlation energy -0.3037691801460538
                Solving CC Amplitude Equations
                ------------------------------
  Iter             Energy              RMS        T1Diag      D1Diag    New D1Diag    D2Diag
  ----     ---------------------    ---------   ----------  ----------  ----------   --------
     0        -0.303769180146054    0.000e+00    0.000000    0.000000    0.000000    0.156776
     1        -0.323696576521261    5.270e-02    0.006589    0.023138    0.023138    0.172075
     2        -0.333445963029801    2.152e-02    0.008077    0.029180    0.029180    0.189267
     3        -0.334601571953848    7.214e-03    0.009099    0.033291    0.033291    0.196061
     4        -0.334655503499565    2.317e-03    0.009240    0.034023    0.034023    0.198786
     5        -0.334674117739860    4.497e-04    0.009249    0.034080    0.034080    0.199164
     6        -0.334674114110651    1.049e-04    0.009246    0.034076    0.034076    0.199190
     7        -0.334674031393419    2.300e-05    0.009245    0.034073    0.034073    0.199195
     8        -0.334674002214453    6.992e-06    0.009245    0.034072    0.034072    0.199196
     9        -0.334673897898997    2.407e-06    0.009245    0.034072    0.034072    0.199195
    10        -0.334673953129218    7.514e-07    0.009245    0.034072    0.034072    0.199195
    11        -0.334673958589096    1.900e-07    0.009245    0.034072    0.034072    0.199195
    12        -0.334673964158485    4.810e-08    0.009245    0.034072    0.034072    0.199195

    Iterations converged.


    Largest TIA Amplitudes:
              7   8         0.0313860852
              7  18         0.0111122931
              4   3         0.0059392180
              5  21         0.0047177781
              3  13         0.0044542348
              7   7         0.0041771847
              7  28         0.0038200523
              7  11         0.0037968646
              6  34         0.0034955990
              5   5         0.0034658376
              4  24        -0.0031688234
              4  14         0.0030178875
              2  23         0.0029840772
              2   2        -0.0028065837
              2  40         0.0026566033
              3  25         0.0025789264
              6  11         0.0025055897
              5  33        -0.0020763900
              3  30        -0.0019234350
              3  41         0.0018421508
              4  37         0.0018319788
              6   8         0.0017678678
              6  22        -0.0017580400
              6   7         0.0016371661
              2  21         0.0015600187
              3  29        -0.0015323248
              4  27         0.0015186395
              2  10         0.0015179760
              3  35         0.0015111147
              2   5         0.0014772089
              5   2        -0.0014491601
              5  36        -0.0013557281
              5  15        -0.0012709210
              3  38         0.0012546720
              2  36         0.0011454709
              3   4         0.0009612147
              3  12         0.0008791800
              3  16         0.0007861979
              3   1        -0.0007748068
              6  18         0.0007552469
              2  15         0.0007297777
              5  10        -0.0007022340
              2  33        -0.0005822263
              5  20         0.0005702428
              4   6         0.0005544400
              6  19        -0.0005540823
              5  23         0.0005490648
              1  13        -0.0005481772
              4   0        -0.0005335352
              5  40         0.0005163780
              6  39         0.0004930110
              7  34        -0.0004843663
              0  40        -0.0004618688
              1  41        -0.0003660213
              4  31         0.0003475423
              0  10        -0.0003383643
              4   9        -0.0003332468
              1   1        -0.0003282633
              2  32        -0.0003257867
              7  22         0.0003236561
              0  15        -0.0002902160
              1  12        -0.0002750954
              0   2        -0.0002388560
              1  35        -0.0002206135
              7  19         0.0002102813
              1   4        -0.0001878480
              1  38        -0.0001774072
              7  39         0.0001647084
              5  32        -0.0001622404
              6  28         0.0001581489
              0  36        -0.0001543372
              0   5        -0.0001357076
              1  25        -0.0001304112
              2  42         0.0001230678
              1  43         0.0000975240
              0  21        -0.0000970914
              0  42         0.0000968536
              3  43         0.0000907861
              1  16        -0.0000843938
              4  26        -0.0000689160
              1  29        -0.0000649834
              1  30        -0.0000637661
              0  23        -0.0000458768
              0  33        -0.0000363715
              5  42         0.0000188622
              3  17         0.0000122023
              1  17        -0.0000054934
              2  20         0.0000017424
              0  20        -0.0000012684
              0  32        -0.0000003073

    Largest TIjAb Amplitudes:
      7   7   0   0        -0.1298364088
      7   7   0   9        -0.0566465977
      7   7   9   0        -0.0566465977
      7   7   9   9        -0.0338758249
      5   5  12  12        -0.0310247205
      5   7  12   0        -0.0296703661
      7   5   0  12        -0.0296703661
      6   6   3   3        -0.0284019841
      7   7   8   8        -0.0270974402
      4   4   3   3        -0.0255825686
      5   7  12   9        -0.0226453043
      7   5   9  12        -0.0226453043
      5   5   5   5        -0.0215414353
      3   3   0   0        -0.0212962227
      6   6   4   4        -0.0206986265
      4   6   3  11         0.0193647914
      6   4  11   3         0.0193647914
      7   7  10  10        -0.0188180958
      3   7   2   0        -0.0181396216
      7   3   0   2        -0.0181396216
      5   7   5   8         0.0181144107
      7   5   8   5         0.0181144107
      5   5   3   3        -0.0177985370
      4   6   2   4        -0.0175087440
      6   4   4   2        -0.0175087440
      2   7  12   0        -0.0174221185
      7   2   0  12        -0.0174221185
      6   6   7   7        -0.0172623760
      4   4   2   2        -0.0167719794
      6   7   7   8        -0.0165722932
      7   6   8   7        -0.0165722932
      2   7   1   0        -0.0161707760
      7   2   0   1        -0.0161707760
      4   4   6   6        -0.0159488070
      4   5   3   5         0.0159273304
      5   4   5   3         0.0159273304
      4   7   6   8        -0.0158969689
      7   4   8   6        -0.0158969689
      6   7   6   0        -0.0157372580
      7   6   0   6        -0.0157372580
      5   6   3   4         0.0156975254
      6   5   4   3         0.0156975254
      4   6   6   7        -0.0153418835
      6   4   7   6        -0.0153418835
      6   6  11  11        -0.0152853453
      3   7   0   2        -0.0151991211
      7   3   2   0        -0.0151991211
      2   7   0  12        -0.0149325275
      7   2  12   0        -0.0149325275
      2   2  12  12        -0.0149091628
      4   6  11   3         0.0142308136
      6   4   3  11         0.0142308136
      5   6   5   7         0.0142064151
      6   5   7   5         0.0142064151
      6   6   2   2        -0.0141479359
      4   6   3   7        -0.0139655108
      6   4   7   3        -0.0139655108
      5   5  18  18        -0.0138936464
      6   7   6   9        -0.0138490700
      7   6   9   6        -0.0138490700
      4   7   3   8        -0.0138084007
      7   4   8   3        -0.0138084007
      2   7   1   9        -0.0137847518
      7   2   9   1        -0.0137847518
      2   7  12   9        -0.0137799082
      7   2   9  12        -0.0137799082
      5   6  12   6        -0.0136405718
      6   5   6  12        -0.0136405718
      3   5   1   5         0.0136118041
      5   3   5   1         0.0136118041
      4   7   7   9        -0.0135613233
      7   4   9   7        -0.0135613233
      3   5   0  18         0.0134269906
      5   3  18   0         0.0134269906
      4   7   7   0        -0.0133212116
      7   4   0   7        -0.0133212116
      3   7   1   8        -0.0132862395
      7   3   8   1        -0.0132862395
      2   7  13   9        -0.0131927738
      7   2   9  13        -0.0131927738
      5   6   5  11        -0.0131742837
      6   5  11   5        -0.0131742837
      6   6  15  15        -0.0127697866
      3   5   2  12        -0.0125136357
      5   3  12   2        -0.0125136357
      6   6   7  11         0.0124992233
      6   6  11   7         0.0124992233
      4   5   7  12        -0.0124991271
      5   4  12   7        -0.0124991271
      3   3  12  12        -0.0123992811
      4   6   3  19        -0.0123322552
      6   4  19   3        -0.0123322552
      4   6   4   2        -0.0123219674
      6   4   2   4        -0.0123219674
      3   6   1   7        -0.0121553429
      6   3   7   1        -0.0121553429
      3   7   0  10         0.0120568317
      7   3  10   0         0.0120568317
      3   7   2   9        -0.0120435804
      7   3   9   2        -0.0120435804
      3   6   0  20         0.0120398910
      6   3  20   0         0.0120398910
      4   5   2   3         0.0120174294
      5   4   3   2         0.0120174294
      3   4   0  17         0.0119854264
      4   3  17   0         0.0119854264
      3   4   1   3        -0.0119824074
      4   3   3   1        -0.0119824074
      3   3   2   2        -0.0119777867
      4   5   6   5         0.0119677771
      5   4   5   6         0.0119677771
      2   5  13  12        -0.0119159400
      5   2  12  13        -0.0119159400
      2   7   0   4        -0.0119087323
      7   2   4   0        -0.0119087323
      4   4   7   7        -0.0118989320
      7   7  12  12        -0.0118954475
      6   6  16  16        -0.0118425630
      2   7   0   1        -0.0118383494
      7   2   1   0        -0.0118383494
      6   6   6   6        -0.0117993259
      4   6   7   6        -0.0116418751
      6   4   6   7        -0.0116418751
      6   7  11   8         0.0115326543
      7   6   8  11         0.0115326543
      2   7  13   0        -0.0114932966
      7   2   0  13        -0.0114932966
      3   3   1   1        -0.0114724951
      2   7  10   8        -0.0114294169
      7   2   8  10        -0.0114294169
      4   4  11  11        -0.0114123056
      4   4   3  14        -0.0113952541
      4   4  14   3        -0.0113952541
      3   6   1  11         0.0113799218
      6   3  11   1         0.0113799218
      3   7   5   9        -0.0112448727
      7   3   9   5        -0.0112448727
      4   6  15   4        -0.0111956617
      6   4   4  15        -0.0111956617
      3   7   0   5        -0.0111815709
      7   3   5   0        -0.0111815709
      3   7  13   8        -0.0111644781
      7   3   8  13        -0.0111644781
      6   6  14  14        -0.0111461022
      6   6   3  14        -0.0110858445
      6   6  14   3        -0.0110858445
      5   5   2   2        -0.0110358714
      7   7  18  18        -0.0109853199
      4   4   4   4        -0.0109303254
      5   5  14  14        -0.0108754283
      3   3   4   4        -0.0108598312
      4   7  11   9         0.0108536739
      7   4   9  11         0.0108536739
      3   7   5   0        -0.0107558265
      7   3   0   5        -0.0107558265
      3   7   0  23        -0.0107542109
      7   3  23   0        -0.0107542109
      5   5   3  14        -0.0107498597
      5   5  14   3        -0.0107498597
      4   4  17  17        -0.0107274151
      4   6  19   3        -0.0107240280
      6   4   3  19        -0.0107240280
      4   7  11   0         0.0106964485
      7   4   0  11         0.0106964485
      6   6  20  20        -0.0106128488
      3   3  15  15        -0.0105753766
      6   7   0   0        -0.0104442531
      7   6   0   0        -0.0104442531
      3   5   4   2         0.0104440049
      5   3   2   4         0.0104440049
      4   6  15  16        -0.0104194363
      6   4  16  15        -0.0104194363
      4   6  17  20        -0.0103935760
      6   4  20  17        -0.0103935760
      2   7   4   0        -0.0102700712
      7   2   0   4        -0.0102700712
      4   4  14  14        -0.0102502661
      6   6   4  16        -0.0102432100
      6   6  16   4        -0.0102432100
      2   2   3   3        -0.0101855215
      4   6   4  15        -0.0101333904
      6   4  15   4        -0.0101333904
      3   5   2   4         0.0101198935
      5   3   4   2         0.0101198935
      3   3   5   5        -0.0100357218
      4   6  16  15        -0.0100126515
      6   4  15  16        -0.0100126515
      5   6   3  16         0.0099644744
      6   5  16   3         0.0099644744
      6   6  19  19        -0.0098546938
      4   5  15   3         0.0098539026
      5   4   3  15         0.0098539026
      3   5  13   5         0.0098345093
      5   3   5  13         0.0098345093
      4   4  15  15        -0.0098168925
      2   5   1  12        -0.0097872987
      5   2  12   1        -0.0097872987
      2   2   0   0        -0.0097350929
      6   7   0   3        -0.0096920105
      7   6   3   0        -0.0096920105
      7   7  17  17        -0.0096526218
      3   4  13   3        -0.0095621072
      4   3   3  13        -0.0095621072
      4   6   6  11         0.0095148788
      6   4  11   6         0.0095148788
      4   6  14  19        -0.0095100578
      6   4  19  14        -0.0095100578
      3   5  10  12        -0.0094981671
      5   3  12  10        -0.0094981671
      4   4   7  11         0.0094976212
      4   4  11   7         0.0094976212
      2   5  10   5         0.0094713796
      5   2   5  10         0.0094713796
      6   6   0   0        -0.0094543554
      4   5  17  18        -0.0094465016
      5   4  18  17        -0.0094465016
      2   7   9  12        -0.0094446113
      7   2  12   9        -0.0094446113
      2   5  12  12        -0.0094418979
      5   2  12  12        -0.0094418979
      6   6   2  15        -0.0093906909
      6   6  15   2        -0.0093906909
      3   6   3   2        -0.0093462935
      6   3   2   3        -0.0093462935
      3   7   0  15        -0.0093089705
      7   3  15   0        -0.0093089705
      5   5   0   0        -0.0093080255
      3   4   1   6        -0.0092896869
      4   3   6   1        -0.0092896869
      5   6  14  16         0.0092471901
      6   5  16  14         0.0092471901
      5   5   4   4        -0.0092053966
      3   5  12   2        -0.0091305384
      5   3   2  12        -0.0091305384
      3   3   0   9        -0.0091000385
      3   3   9   0        -0.0091000385
      6   6  17  17        -0.0090783702
      3   3   2  15        -0.0090611516
      3   3  15   2        -0.0090611516
      3   5   5  12        -0.0089621600
      5   3  12   5        -0.0089621600
      3   6   3  15        -0.0089163946
      6   3  15   3        -0.0089163946
      4   4   3   6        -0.0088945567
      4   4   6   3        -0.0088945567
      2   4  10   6        -0.0088729177
      4   2   6  10        -0.0088729177
      3   3   3   3        -0.0088053746
      4   6  20  17        -0.0086805308
      6   4  17  20        -0.0086805308
      2   2  13  13        -0.0086551632
      5   7   4   0         0.0086474761
      7   5   0   4         0.0086474761
      3   6  13  11         0.0086083543
      6   3  11  13         0.0086083543
      5   6   1   3         0.0086010163
      6   5   3   1         0.0086010163
      3   6  13   7        -0.0085946477
      6   3   7  13        -0.0085946477
      5   7   0   4         0.0085909921
      7   5   4   0         0.0085909921
      4   4  16  16        -0.0085798832
      2   7   9   1        -0.0085377687
      7   2   1   9        -0.0085377687
      5   6  18  20        -0.0084682735
      6   5  20  18        -0.0084682735
      4   4  20  20        -0.0084594351
      5   7  13   0        -0.0084220830
      7   5   0  13        -0.0084220830
      3   4   3   4        -0.0084039815
      4   3   4   3        -0.0084039815
      2   6   0  17         0.0084027286
      6   2  17   0         0.0084027286
      4   4   2  15        -0.0083937878
      4   4  15   2        -0.0083937878
      5   7   3  17         0.0083687745
      7   5  17   3         0.0083687745
      2   7   0  16        -0.0083170729
      7   2  16   0        -0.0083170729
      2   7   2   8        -0.0083134509
      7   2   8   2        -0.0083134509
      2   2  12  13        -0.0083126803
      2   2  13  12        -0.0083126803
      3   6   5   3        -0.0082923066
      6   3   3   5        -0.0082923066
      2   2  18  18        -0.0082803019
      3   5   4  15         0.0082528566
      5   3  15   4         0.0082528566
      3   5  15   4         0.0082036331
      5   3   4  15         0.0082036331
      2   2   0   9        -0.0081760389
      2   2   9   0        -0.0081760389
      3   6  14  15        -0.0081756065
      6   3  15  14        -0.0081756065
      2   2  10  10        -0.0081316062
      4   7   3  18         0.0081069116
      7   4  18   3         0.0081069116
      4   6  19  14        -0.0080917320
      6   4  14  19        -0.0080917320
      3   7   9   2        -0.0080694925
      7   3   2   9        -0.0080694925
      2   4   0  20         0.0080552555
      4   2  20   0         0.0080552555
      2   6  10   7        -0.0080470552
      6   2   7  10        -0.0080470552
      5   5   4  12         0.0080037625
      5   5  12   4         0.0080037625
      6   6   1   1        -0.0079726613
      2   2   9   9        -0.0079334349
      4   4  19  19        -0.0079331973
      4   6   7   3        -0.0078394774
      6   4   3   7        -0.0078394774
      4   5  15  14         0.0078208098
      5   4  14  15         0.0078208098
      3   7  15   0        -0.0077981217
      7   3   0  15        -0.0077981217
      2   4  13   7        -0.0077802359
      4   2   7  13        -0.0077802359
      4   6  11   6         0.0077515027
      6   4   6  11         0.0077515027
      5   5   1   1        -0.0077103933
      3   6  15   3        -0.0076935759
      6   3   3  15        -0.0076935759
      4   4  21  21        -0.0076740762
      3   4  13   6        -0.0076653935
      4   3   6  13        -0.0076653935
      3   6   4  11         0.0076625712
      6   3  11   4         0.0076625712
      3   4   5  11         0.0076531299
      4   3  11   5         0.0076531299
      3   4   5   7        -0.0076432168
      4   3   7   5        -0.0076432168
      3   3   1  13        -0.0076192530
      3   3  13   1        -0.0076192530
      3   3  16  16        -0.0076036852
      5   6  14   4         0.0076027691
      6   5   4  14         0.0076027691
      5   5  15  15        -0.0075964880
      4   5   3  21         0.0075475119
      5   4  21   3         0.0075475119
      2   2   3  14        -0.0074985512
      2   2  14   3        -0.0074985512
      5   7  14  17         0.0074982507
      7   5  17  14         0.0074982507
      3   5   5   1         0.0074970201
      5   3   1   5         0.0074970201
      3   5  18   0         0.0074837188
      5   3   0  18         0.0074837188
      6   6  11  19         0.0074708767
      6   6  19  11         0.0074708767
      3   3  13  13        -0.0074700418
      3   6   2  24        -0.0074660273
      6   3  24   2        -0.0074660273
      4   5  11  12         0.0074632850
      5   4  12  11         0.0074632850
      3   5   4   5         0.0074354324
      5   3   5   4         0.0074354324
      2   6   3  12        -0.0074328181
      6   2  12   3        -0.0074328181
      2   4  13  11         0.0074198708
      4   2  11  13         0.0074198708
      3   6   2   6        -0.0074037872
      6   3   6   2        -0.0074037872
      4   7   0  11         0.0073931895
      7   4  11   0         0.0073931895
      5   6   4   3         0.0073877843
      6   5   3   4         0.0073877843
      7   7  23  23        -0.0073691157
      7   7   1  12        -0.0072771495
      7   7  12   1        -0.0072771495
      3   7  12  18         0.0072491960
      7   3  18  12         0.0072491960
      2   4   1   7        -0.0072474890
      4   2   7   1        -0.0072474890
      7   7   5  10         0.0072392163
      7   7  10   5         0.0072392163
      5   6  19  15         0.0071815983
      6   5  15  19         0.0071815983
      2   2  14  14        -0.0071718606
      3   7  10   9        -0.0071613813
      7   3   9  10        -0.0071613813
      2   4   2   6        -0.0071606475
      4   2   6   2        -0.0071606475
      3   3  18  18        -0.0071588979
      5   5   2  15        -0.0071544084
      5   5  15   2        -0.0071544084
      2   3   2   4        -0.0071410305
      3   2   4   2        -0.0071410305
      6   6  22  22        -0.0071384354
      3   5  15  16         0.0071071849
      5   3  16  15         0.0071071849
      3   6   5   6        -0.0070870397
      6   3   6   5        -0.0070870397
      2   6   3   1        -0.0070567187
      6   2   1   3        -0.0070567187
      2   6  13   6        -0.0070275781
      6   2   6  13        -0.0070275781
      7   7   1   1        -0.0070142315
      3   6  20   0         0.0069713316
      6   3   0  20         0.0069713316
      3   4   4   3        -0.0069560419
      4   3   3   4        -0.0069560419
      3   5  16  15         0.0069457512
      5   3  15  16         0.0069457512
      6   6  21  21        -0.0069417159
      3   7   4   8        -0.0069372037
      7   3   8   4        -0.0069372037
      5   5  10  10        -0.0069309451
      4   6   2  16        -0.0069231789
      6   4  16   2        -0.0069231789
      3   3   2   5        -0.0068801482
      3   3   5   2        -0.0068801482
      2   4   1  11         0.0068328528
      4   2  11   1         0.0068328528
      3   7  15   9        -0.0068212169
      7   3   9  15        -0.0068212169
      2   4  12  11         0.0067805545
      4   2  11  12         0.0067805545
      2   7   4   9        -0.0067778161
      7   2   9   4        -0.0067778161
      3   6   4   7        -0.0067654741
      6   3   7   4        -0.0067654741
      3   4   4   6        -0.0067350926
      4   3   6   4        -0.0067350926
      3   3  20  20        -0.0067348695
      3   3   4  16        -0.0067272339
      3   3  16   4        -0.0067272339
      2   5  12  13        -0.0067162461
      5   2  13  12        -0.0067162461
      3   6  10   6        -0.0067021349
      6   3   6  10        -0.0067021349
      3   6  21   3        -0.0066996386
      6   3   3  21        -0.0066996386
      2   6   1   6        -0.0066954075
      6   2   6   1        -0.0066954075
      5   7  18  23         0.0066912101
      7   5  23  18         0.0066912101
      2   5   2   5         0.0066904089
      5   2   5   2         0.0066904089
      3   4  14  16        -0.0066272465
      4   3  16  14        -0.0066272465
      2   7   9  13        -0.0066246256
      7   2  13   9        -0.0066246256
      2   6  13   3        -0.0066197426
      6   2   3  13        -0.0066197426
      3   5   9  18         0.0065940795
      5   3  18   9         0.0065940795
      2   4   3  21        -0.0065595154
      4   2  21   3        -0.0065595154
      4   4   4  16        -0.0065565689
      4   4  16   4        -0.0065565689
      3   4   2   7        -0.0065374720
      4   3   7   2        -0.0065374720
      3   6   3   5        -0.0065254571
      6   3   5   3        -0.0065254571
      3   3   9   9        -0.0065110791
      4   4  11  19         0.0064996403
      4   4  19  11         0.0064996403
      2   5   8  18         0.0064954295
      5   2  18   8         0.0064954295
      3   5  15  12        -0.0064598219
      5   3  12  15        -0.0064598219
      3   6  11   1         0.0064594206
      6   3   1  11         0.0064594206
      2   3   0  18        -0.0064332612
      3   2  18   0        -0.0064332612
      3   6  19  16        -0.0064134272
      6   3  16  19        -0.0064134272
      7   7   0  26        -0.0064108709
      7   7  26   0        -0.0064108709
      6   6  24  24        -0.0063858926
      3   3  14  14        -0.0063702876
      4   5  16  19         0.0063571523
      5   4  19  16         0.0063571523
      5   6  12  24        -0.0063451580
      6   5  24  12        -0.0063451580
      3   6  11   4         0.0063317417
      6   3   4  11         0.0063317417
      6   6   4  13        -0.0063259658
      6   6  13   4        -0.0063259658
      2   2   1  13        -0.0063011717
      2   2  13   1        -0.0063011717
      3   4  10   7        -0.0062893833
      4   3   7  10        -0.0062893833
      4   6  14  11         0.0062833805
      6   4  11  14         0.0062833805
      2   2   1  12        -0.0062818827
      2   2  12   1        -0.0062818827
      2   7   3  17         0.0062729972
      7   2  17   3         0.0062729972
      2   7   9   4        -0.0062678377
      7   2   4   9        -0.0062678377
      5   6   2   7         0.0062441936
      6   5   7   2         0.0062441936
      3   6   4  22        -0.0062252882
      6   3  22   4        -0.0062252882
      3   6  18  17         0.0062183086
      6   3  17  18         0.0062183086
      4   5   4  11        -0.0062154807
      5   4  11   4        -0.0062154807
      6   6  10  15         0.0062095322
      6   6  15  10         0.0062095322
      5   7  18   2         0.0062038682
      7   5   2  18         0.0062038682
      3   3  17  17        -0.0062038443
      3   6   7   1        -0.0061967617
      6   3   1   7        -0.0061967617
      2   6   3  13        -0.0061957539
      6   2  13   3        -0.0061957539
      3   3  10  10        -0.0061877035
      3   7   9   5        -0.0061865716
      7   3   5   9        -0.0061865716
      5   6  11   2        -0.0061858187
      6   5   2  11        -0.0061858187
      3   4  17   0         0.0061823618
      4   3   0  17         0.0061823618
      6   7  24   0        -0.0061765220
      7   6   0  24        -0.0061765220
      4   5  14  10        -0.0061741824
      5   4  10  14        -0.0061741824
      2   6   2   7        -0.0061560413
      6   2   7   2        -0.0061560413
      4   6  16  10         0.0061509611
      6   4  10  16         0.0061509611
      3   7   9  23        -0.0061485829
      7   3  23   9        -0.0061485829
      4   7  14  18         0.0061349076
      7   4  18  14         0.0061349076
      2   5   2   2         0.0061154535
      5   2   2   2         0.0061154535
      4   5   6   2         0.0061020482
      5   4   2   6         0.0061020482
      3   3  11  11        -0.0060782585
      2   2  17  17        -0.0060712008
      6   7   3   9        -0.0060541846
      7   6   9   3        -0.0060541846
      5   5   5  21        -0.0060395515
      5   5  21   5        -0.0060395515
      2   5  12  25        -0.0060050842
      5   2  25  12        -0.0060050842
      4   6  21  25         0.0059739750
      6   4  25  21         0.0059739750
      5   6  25   3        -0.0059545095
      6   5   3  25        -0.0059545095
      5   7   9  12        -0.0059294755
      7   5  12   9        -0.0059294755
      2   6  17   0         0.0059029208
      6   2   0  17         0.0059029208
      2   2   1   1        -0.0058816480
      3   4   4  24        -0.0058806569
      4   3  24   4        -0.0058806569
      2   5   3  27        -0.0058794147
      5   2  27   3        -0.0058794147
      3   6  15  14        -0.0058678350
      6   3  14  15        -0.0058678350
      2   3   8   0        -0.0058546177
      3   2   0   8        -0.0058546177
      2   3   1   5        -0.0058512566
      3   2   5   1        -0.0058512566
      2   4  12  19        -0.0058477067
      4   2  19  12        -0.0058477067
      5   5  21  21        -0.0058460704
      7   7   2   2        -0.0058361145
      2   5   0  26        -0.0058221480
      5   2  26   0        -0.0058221480
      3   4  19  15        -0.0058172592
      4   3  15  19        -0.0058172592
      3   4  12   3        -0.0057943933
      4   3   3  12        -0.0057943933
      3   4  18  20         0.0057886348
      4   3  20  18         0.0057886348
      5   7  21  18        -0.0057877675
      7   5  18  21        -0.0057877675
      3   6  12  22         0.0057785145
      6   3  22  12         0.0057785145
      5   6  16   3         0.0057749649
      6   5   3  16         0.0057749649
      2   2   8   8        -0.0057740429
      5   6   2  22         0.0057710023
      6   5  22   2         0.0057710023
      7   7   8  18         0.0057684825
      7   7  18   8         0.0057684825
      3   4   2  22        -0.0057668167
      4   3  22   2        -0.0057668167
      2   3   4   2        -0.0057632497
      3   2   2   4        -0.0057632497
      2   3   8   9        -0.0057590378
      3   2   9   8        -0.0057590378
      4   6  10  16         0.0057564063
      6   4  16  10         0.0057564063
      2   3  17  20        -0.0057165222
      3   2  20  17        -0.0057165222
      7   7   5   5        -0.0057112418
      3   4   2  11         0.0057045413
      4   3  11   2         0.0057045413
      3   4   3  13        -0.0057034429
      4   3  13   3        -0.0057034429
      6   6  10  10        -0.0056938605
      5   6   4  24         0.0056895974
      6   5  24   4         0.0056895974
      3   3   7   7        -0.0056711962
      3   5  12  23         0.0056405698
      5   3  23  12         0.0056405698
      2   6  12   3        -0.0056389383
      6   2   3  12        -0.0056389383
      2   3  15   4        -0.0056377119
      3   2   4  15        -0.0056377119
      4   6  16   2        -0.0056251510
      6   4   2  16        -0.0056251510
      3   3   4  12         0.0056173195
      3   3  12   4         0.0056173195
      3   6  16  19        -0.0056126064
      6   3  19  16        -0.0056126064
      2   3   3  11         0.0056040968
      3   2  11   3         0.0056040968
      3   3  19  19        -0.0055993612
      2   5   4   4         0.0055927542
      5   2   4   4         0.0055927542
      3   7   9  15        -0.0055912960
      7   3  15   9        -0.0055912960
      4   5  24   2         0.0055894997
      5   4   2  24         0.0055894997
      3   4  12  14        -0.0055825303
      4   3  14  12        -0.0055825303
      5   7   2  18         0.0055774404
      7   5  18   2         0.0055774404
      2   5   5  10         0.0055707708
      5   2  10   5         0.0055707708
      6   6  25  25        -0.0055698792
      4   6  24  22        -0.0055691002
      6   4  22  24        -0.0055691002
      5   6  16  14         0.0055639127
      6   5  14  16         0.0055639127
      3   5   3  11        -0.0055550607
      5   3  11   3        -0.0055550607
      3   5   2  16         0.0055523320
      5   3  16   2         0.0055523320
      2   5   0   0         0.0055446003
      5   2   0   0         0.0055446003
      2   5   3  14        -0.0055441793
      5   2  14   3        -0.0055441793
      2   7   0  13        -0.0055352411
      7   2  13   0        -0.0055352411
      4   4   0   0        -0.0055347330
      4   4   1   1        -0.0055262713
      5   7   4   9         0.0055196233
      7   5   9   4         0.0055196233
      3   6  15  24        -0.0055171050
      6   3  24  15        -0.0055171050
      4   7  17  10        -0.0054935552
      7   4  10  17        -0.0054935552
      4   7  17  23         0.0054844171
      7   4  23  17         0.0054844171
      6   7   9   3        -0.0054794980
      7   6   3   9        -0.0054794980
      2   7  12  26        -0.0054771006
      7   2  26  12        -0.0054771006
      5   5   4  16        -0.0054650454
      5   5  16   4        -0.0054650454
      3   6  19   4        -0.0054574376
      6   3   4  19        -0.0054574376
      3   6  10  14         0.0054428786
      6   3  14  10         0.0054428786
      4   5   2  14         0.0054361527
      5   4  14   2         0.0054361527
      2   4  12   7        -0.0054215779
      4   2   7  12        -0.0054215779
      3   6   3  21        -0.0054158696
      6   3  21   3        -0.0054158696
      2   6   1   3        -0.0054125231
      6   2   3   1        -0.0054125231
      4   4  10  10        -0.0054095725
      3   3   1   4        -0.0053973916
      3   3   4   1        -0.0053973916
      6   6   5   5        -0.0053920673
      7   7  13  13        -0.0053902928
      3   6   2   3        -0.0053888782
      6   3   3   2        -0.0053888782
      3   5  12  10        -0.0053407762
      5   3  10  12        -0.0053407762
      4   6  21   1        -0.0053384629
      6   4   1  21        -0.0053384629
      4   4  12  12        -0.0053372292
      4   6   2  13        -0.0053365209
      6   4  13   2        -0.0053365209
      5   7  25   9        -0.0053291453
      7   5   9  25        -0.0053291453
      5   6  26  17         0.0053257178
      6   5  17  26         0.0053257178
      6   7  14   0         0.0053206065
      7   6   0  14         0.0053206065
      3   4   9  17         0.0053127161
      4   3  17   9         0.0053127161
      6   7   0   9        -0.0053105807
      7   6   9   0        -0.0053105807
      4   4  24  24        -0.0053082981
      4   6  22  24        -0.0053012951
      6   4  24  22        -0.0053012951
      5   5  16  16        -0.0052867572
      2   3   4  15        -0.0052825537
      3   2  15   4        -0.0052825537
      3   3   0  26         0.0052733199
      3   3  26   0         0.0052733199
      4   6  25  21         0.0052440000
      6   4  21  25         0.0052440000
      5   6   0  17        -0.0052436486
      6   5  17   0        -0.0052436486
      5   6  11  15        -0.0052231047
      6   5  15  11        -0.0052231047
      3   3   4  13        -0.0052197159
      3   3  13   4        -0.0052197159
      4   4  22  22        -0.0052170907
      2   3  13   5        -0.0051968143
      3   2   5  13        -0.0051968143
      3   6  11  13         0.0051893551
      6   3  13  11         0.0051893551
      5   7  18  10        -0.0051819506
      7   5  10  18        -0.0051819506
      3   3   5  15        -0.0051800001
      3   3  15   5        -0.0051800001
      5   7   0  16         0.0051708712
      7   5  16   0         0.0051708712
      5   6   3  12        -0.0051668398
      6   5  12   3        -0.0051668398
      3   5  16   2         0.0051663760
      5   3   2  16         0.0051663760
      3   4   3   1        -0.0051662750
      4   3   1   3        -0.0051662750
      3   6  26  20        -0.0051556289
      6   3  20  26        -0.0051556289
      4   6   5   1        -0.0051530242
      6   4   1   5        -0.0051530242
      2   7  12  31        -0.0051504514
      7   2  31  12        -0.0051504514
      4   5   3  15         0.0051480158
      5   4  15   3         0.0051480158
      5   5  23  23        -0.0051446121
      3   3   5  10        -0.0051374403
      3   3  10   5        -0.0051374403
      3   4  15  19        -0.0051335486
      4   3  19  15        -0.0051335486
      2   2   5   5        -0.0051158668
      2   3  15  16        -0.0051093784
      3   2  16  15        -0.0051093784
      3   5   5   4         0.0051008918
      5   3   4   5         0.0051008918
      6   6  12  12        -0.0050994616
      6   7  17  12         0.0050986746
      7   6  12  17         0.0050986746
      3   4   3  16        -0.0050984301
      4   3  16   3        -0.0050984301
      6   6  13  13        -0.0050880101
      4   5  20  26         0.0050857032
      5   4  26  20         0.0050857032
      3   4  21  11         0.0050740053
      4   3  11  21         0.0050740053
      2   2  21  21        -0.0050736669
      4   6   1  21        -0.0050724210
      6   4  21   1        -0.0050724210
      3   3  22  22        -0.0050592950
      4   7  20  12         0.0050551966
      7   4  12  20         0.0050551966
      5   5  13  13        -0.0050492224
      2   3  20  17        -0.0050474848
      3   2  17  20        -0.0050474848
      4   6   1   5        -0.0050431287
      6   4   5   1        -0.0050431287
      5   6  21  11        -0.0050410314
      6   5  11  21        -0.0050410314
      7   7   3   3        -0.0050279441
      4   5  10  14        -0.0050257766
      5   4  14  10        -0.0050257766
      2   3  10  13        -0.0050257099
      3   2  13  10        -0.0050257099
      2   5  25  12        -0.0050240044
      5   2  12  25        -0.0050240044
      3   3  24  24        -0.0050230910
      2   6   2  11         0.0050034473
      6   2  11   2         0.0050034473
      3   5  12  15        -0.0050004684
      5   3  15  12        -0.0050004684
      5   7  21   8         0.0049952891
      7   5   8  21         0.0049952891
      2   7  25   0        -0.0049932482
      7   2   0  25        -0.0049932482
      2   6   9  17         0.0049870931
      6   2  17   9         0.0049870931
      3   6  14  10         0.0049786097
      6   3  10  14         0.0049786097
      2   4  20   0         0.0049724291
      4   2   0  20         0.0049724291
      6   7   9   0        -0.0049507669
      7   6   0   9        -0.0049507669
      3   5  14  19         0.0049448158
      5   3  19  14         0.0049448158
      2   6  14  12        -0.0049404468
      6   2  12  14        -0.0049404468
      5   6  15  19         0.0049399816
      6   5  19  15         0.0049399816
      3   3  21  21        -0.0049387164
      3   4  14   4        -0.0049227138
      4   3   4  14        -0.0049227138
      3   4  11  21         0.0049085183
      4   3  21  11         0.0049085183
      3   3   6   6        -0.0049031242
      3   4  12  24         0.0049014707
      4   3  24  12         0.0049014707
      2   2   2   2        -0.0048984114
      5   5   2   5        -0.0048975594
      5   5   5   2        -0.0048975594
      3   6  12  19        -0.0048909350
      6   3  19  12        -0.0048909350
      2   4  11   1         0.0048909041
      4   2   1  11         0.0048909041
      4   5  11   4        -0.0048763347
      5   4   4  11        -0.0048763347
      2   3   2   1        -0.0048676848
      3   2   1   2        -0.0048676848
      7   7   4  12        -0.0048654688
      7   7  12   4        -0.0048654688
      4   5   4  19         0.0048589244
      5   4  19   4         0.0048589244
      3   4  16  14        -0.0048459025
      4   3  14  16        -0.0048459025
      3   4  11   5         0.0048425599
      4   3   5  11         0.0048425599
      4   7  21  17         0.0048387309
      7   4  17  21         0.0048387309
      2   7  15   8        -0.0048382342
      7   2   8  15        -0.0048382342
      4   5  11  25         0.0048361490
      5   4  25  11         0.0048361490
      5   6   2  11        -0.0048330499
      6   5  11   2        -0.0048330499
      6   6   2   5        -0.0048158776
      6   6   5   2        -0.0048158776
      5   5  12  25        -0.0048134675
      5   5  25  12        -0.0048134675
      2   2   6   6        -0.0048071824
      5   5  24  24        -0.0047888741
      2   5  15  15         0.0047888071
      5   2  15  15         0.0047888071
      4   4  13  13        -0.0047836985
      2   5  12  35        -0.0047814066
      5   2  35  12        -0.0047814066
      3   4  11   2         0.0047807851
      4   3   2  11         0.0047807851
      2   3  16  15        -0.0047775829
      3   2  15  16        -0.0047775829
      3   4  15  11         0.0047525722
      4   3  11  15         0.0047525722
      2   2  23  23        -0.0047496114
      6   7  20  23         0.0047468889
      7   6  23  20         0.0047468889
      3   6   6  10        -0.0047390528
      6   3  10   6        -0.0047390528
      5   6  12  14         0.0047309458
      6   5  14  12         0.0047309458
      7   7   2  23        -0.0047181817
      7   7  23   2        -0.0047181817
      6   7  20  10        -0.0047134515
      7   6  10  20        -0.0047134515
      2   7   8  23        -0.0047131111
      7   2  23   8        -0.0047131111
      3   7  10   0        -0.0047107147
      7   3   0  10        -0.0047107147
      2   4   9  20         0.0047099038
      4   2  20   9         0.0047099038
      6   7   4  17        -0.0047056843
      7   6  17   4        -0.0047056843
      2   3  10   1        -0.0046953707
      3   2   1  10        -0.0046953707
      5   5  19  19        -0.0046794359
      2   3   2  13        -0.0046694231
      3   2  13   2        -0.0046694231
      2   4   7   1        -0.0046663508
      4   2   1   7        -0.0046663508
      3   7   8   1        -0.0046559721
      7   3   1   8        -0.0046559721
      7   7   9  26        -0.0046541911
      7   7  26   9        -0.0046541911
      2   4   6  10        -0.0046507709
      4   2  10   6        -0.0046507709
      2   3   0   8        -0.0046503596
      3   2   8   0        -0.0046503596
      3   6   9  20         0.0046490557
      6   3  20   9         0.0046490557
      1   1  42  42        -0.0046475034
      2   3  13   2        -0.0046465571
      3   2   2  13        -0.0046465571
      5   5   1  13        -0.0046447967
      5   5  13   1        -0.0046447967
      0   0  42  42        -0.0046440686
      0   1  42  43        -0.0046409300
      1   0  43  42        -0.0046409300
      0   1  43  42        -0.0046408631
      1   0  42  43        -0.0046408631
      1   1  43  43        -0.0046384468
      0   0  43  43        -0.0046350975
      5   6  10  19        -0.0046345039
      6   5  19  10        -0.0046345039
      6   7  12  17         0.0046329469
      7   6  17  12         0.0046329469
      3   4  25   3         0.0046322568
      4   3   3  25         0.0046322568
      5   7  25   0        -0.0046318667
      7   5   0  25        -0.0046318667
      5   7  10  18         0.0046311676
      7   5  18  10         0.0046311676
      2   5  13  25        -0.0046240965
      5   2  25  13        -0.0046240965
      5   6  11   5        -0.0046145429
      6   5   5  11        -0.0046145429
      2   3   9   8        -0.0046135366
      3   2   8   9        -0.0046135366
      2   5   4  12        -0.0046080431
      5   2  12   4        -0.0046080431
      2   4  11  13         0.0046062257
      4   2  13  11         0.0046062257
      4   5  22  12        -0.0046031276
      5   4  12  22        -0.0046031276
      7   7  10  23         0.0045938135
      7   7  23  10         0.0045938135
      3   3   3  14        -0.0045858506
      3   3  14   3        -0.0045858506
      5   6  19  10        -0.0045825847
      6   5  10  19        -0.0045825847
      2   6   2  22        -0.0045703510
      6   2  22   2        -0.0045703510
      3   6  20  26        -0.0045669390
      6   3  26  20        -0.0045669390
      3   7   8  13        -0.0045666624
      7   3  13   8        -0.0045666624
      4   5  20   0        -0.0045630956
      5   4   0  20        -0.0045630956
      2   5  18   8         0.0045620668
      5   2   8  18         0.0045620668
      4   5  19  16         0.0045468528
      5   4  16  19         0.0045468528
      4   6  13   2        -0.0045465402
      6   4   2  13        -0.0045465402
      2   6  11  21         0.0045459862
      6   2  21  11         0.0045459862
      3   4   6   1        -0.0045398705
      4   3   1   6        -0.0045398705
      3   5  12  21         0.0045339985
      5   3  21  12         0.0045339985
      6   6   3   6        -0.0045100905
      6   6   6   3        -0.0045100905
      2   5   6  14        -0.0045044146
      5   2  14   6        -0.0045044146
      5   6  15  11        -0.0044960307
      6   5  11  15        -0.0044960307
      2   3   6   7        -0.0044852301
      3   2   7   6        -0.0044852301
      6   6   1  13        -0.0044813440
      6   6  13   1        -0.0044813440
      2   7   0  25        -0.0044792476
      7   2  25   0        -0.0044792476
      7   7   4   4        -0.0044717429
      5   6  13   3         0.0044566500
      6   5   3  13         0.0044566500
      2   4  13  19        -0.0044501496
      4   2  19  13        -0.0044501496
      5   7   1   0        -0.0044437791
      7   5   0   1        -0.0044437791
      4   6  21  12        -0.0044350533
      6   4  12  21        -0.0044350533
      2   5  12  30        -0.0044345237
      5   2  30  12        -0.0044345237
      2   5   0  31        -0.0044335317
      5   2  31   0        -0.0044335317
      6   6   6  24        -0.0044215381
      6   6  24   6        -0.0044215381
      4   4  25  25        -0.0044142349
      6   6   1   4        -0.0044114486
      6   6   4   1        -0.0044114486
      5   5   2  23         0.0044107782
      5   5  23   2         0.0044107782
      4   6   2  12         0.0044070071
      6   4  12   2         0.0044070071
      3   5   7  14        -0.0043882324
      5   3  14   7        -0.0043882324
      3   6  24   2        -0.0043870260
      6   3   2  24        -0.0043870260
      2   7   9  16        -0.0043840232
      7   2  16   9        -0.0043840232
      6   7  16  17        -0.0043831686
      7   6  17  16        -0.0043831686
      2   7   8   2        -0.0043729078
      7   2   2   8        -0.0043729078
      6   7   1  17         0.0043724250
      7   6  17   1         0.0043724250
      3   6  13  19        -0.0043626699
      6   3  19  13        -0.0043626699
      2   5  15   5         0.0043624474
      5   2   5  15         0.0043624474
      7   7  20  20        -0.0043618758
      3   4  22   2        -0.0043533504
      4   3   2  22        -0.0043533504
      6   6   3  27         0.0043456515
      6   6  27   3         0.0043456515
      3   5   1   2         0.0043319510
      5   3   2   1         0.0043319510
      2   6   4   3        -0.0043234672
      6   2   3   4        -0.0043234672
      2   3   1   2        -0.0043174956
      3   2   2   1        -0.0043174956
[...]
      4   0  18  29         0.0000006145
      0   7  42   7        -0.0000006100
      7   0   7  42        -0.0000006100
      1   6  42  26        -0.0000006054
      6   1  26  42        -0.0000006054
      0   6  17  24        -0.0000006044
      6   0  24  17        -0.0000006044
      0   3   1  32        -0.0000006021
      3   0  32   1        -0.0000006021
      3   4  42  28         0.0000005954
      4   3  28  42         0.0000005954
      1   4  40  28        -0.0000005909
      4   1  28  40        -0.0000005909
      1   2  14  28         0.0000005900
      2   1  28  14         0.0000005900
      0   7  43  27        -0.0000005896
      7   0  27  43        -0.0000005896
      1   6  43  11        -0.0000005894
      6   1  11  43        -0.0000005894
      1   3  40  20        -0.0000005880
      3   1  20  40        -0.0000005880
      0   5  35  16         0.0000005865
      5   0  16  35         0.0000005865
      0   7  22  42        -0.0000005858
      7   0  42  22        -0.0000005858
      0   4  43  11        -0.0000005834
      4   0  11  43        -0.0000005834
      0   4  23  37         0.0000005804
      4   0  37  23         0.0000005804
      0   2  11  28         0.0000005620
      2   0  28  11         0.0000005620
      0   5   1  17        -0.0000005591
      5   0  17   1        -0.0000005591
      0   1  23  17        -0.0000005576
      1   0  17  23        -0.0000005576
      2   6  42   8         0.0000005560
      6   2   8  42         0.0000005560
      0   7  43   9         0.0000005468
      7   0   9  43         0.0000005468
      2   7  22  42        -0.0000005458
      7   2  42  22        -0.0000005458
      0   5  13  17         0.0000005453
      5   0  17  13         0.0000005453
      0   2   4  17         0.0000005440
      2   0  17   4         0.0000005440
      0   2   3  26        -0.0000005412
      2   0  26   3        -0.0000005412
      1   3  20  15        -0.0000005303
      3   1  15  20        -0.0000005303
      1   4  43  26        -0.0000005217
      4   1  26  43        -0.0000005217
      0   5  30  38         0.0000005212
      5   0  38  30         0.0000005212
      0   1  35  20         0.0000005156
      1   0  20  35         0.0000005156
      1   4  28  42         0.0000005155
      4   1  42  28         0.0000005155
      0   6  42   8        -0.0000005118
      6   0   8  42        -0.0000005118
      0   4  17  34         0.0000005106
      4   0  34  17         0.0000005106
      1   4  26  12        -0.0000005104
      4   1  12  26        -0.0000005104
      0   2   1  16        -0.0000005093
      2   0  16   1        -0.0000005093
      0   3   0  22         0.0000005051
      3   0  22   0         0.0000005051
      0   7  22  15        -0.0000005029
      7   0  15  22        -0.0000005029
      0   3  17   2        -0.0000005022
      3   0   2  17        -0.0000005022
      1   6  42   9         0.0000004993
      6   1   9  42         0.0000004993
      4   7  15  43        -0.0000004968
      7   4  43  15        -0.0000004968
      6   7  43   1         0.0000004933
      7   6   1  43         0.0000004933
      1   6  32  26        -0.0000004890
      6   1  26  32        -0.0000004890
      0   4  23  26         0.0000004872
      4   0  26  23         0.0000004872
      0   6  38   9        -0.0000004866
      6   0   9  38        -0.0000004866
      1   4  21   8         0.0000004857
      4   1   8  21         0.0000004857
      0   4  28  43         0.0000004819
      4   0  43  28         0.0000004819
      0   7  43   3         0.0000004784
      7   0   3  43         0.0000004784
      0   6  42   7         0.0000004777
      6   0   7  42         0.0000004777
      1   7  43  34         0.0000004768
      7   1  34  43         0.0000004768
      1   7  15  27         0.0000004763
      7   1  27  15         0.0000004763
      5   6   9  43        -0.0000004729
      6   5  43   9        -0.0000004729
      4   6  42  17        -0.0000004718
      6   4  17  42        -0.0000004718
      3   4  26  43        -0.0000004706
      4   3  43  26        -0.0000004706
      0   5  17  38        -0.0000004664
      5   0  38  17        -0.0000004664
      4   6  31   8        -0.0000004608
      6   4   8  31        -0.0000004608
      0   6  18  23         0.0000004596
      6   0  23  18         0.0000004596
      0   2  22  28         0.0000004585
      2   0  28  22         0.0000004585
      2   7  43   6        -0.0000004575
      7   2   6  43        -0.0000004575
      1   3   4  29        -0.0000004535
      3   1  29   4        -0.0000004535
      0   2  14  26        -0.0000004531
      2   0  26  14        -0.0000004531
      0   5  17  13        -0.0000004511
      5   0  13  17        -0.0000004511
      2   7  14  43        -0.0000004471
      7   2  43  14        -0.0000004471
      0   7  10  22         0.0000004456
      7   0  22  10         0.0000004456
      1   7  43   7        -0.0000004335
      7   1   7  43        -0.0000004335
      1   2   6  39         0.0000004317
      2   1  39   6         0.0000004317
      1   2  19   9         0.0000004295
      2   1   9  19         0.0000004295
      5   7  36  11        -0.0000004261
      7   5  11  36        -0.0000004261
      2   7  42  39        -0.0000004219
      7   2  39  42        -0.0000004219
      0   4   1  28        -0.0000004188
      4   0  28   1        -0.0000004188
      0   4  18  12        -0.0000004184
      4   0  12  18        -0.0000004184
      0   6  43  14         0.0000004155
      6   0  14  43         0.0000004155
      0   2  23  21        -0.0000004137
      2   0  21  23        -0.0000004137
      1   3   5  20         0.0000004099
      3   1  20   5         0.0000004099
      2   4  43  28         0.0000004082
      4   2  28  43         0.0000004082
      0   4  13  18        -0.0000004069
      4   0  18  13        -0.0000004069
      6   7   2  42         0.0000004068
      7   6  42   2         0.0000004068
      2   2  17  43         0.0000004002
      2   2  43  17         0.0000004002
      1   4  13   0         0.0000003950
      4   1   0  13         0.0000003950
      1   4  32  39        -0.0000003929
      4   1  39  32        -0.0000003929
      4   5  43   8         0.0000003921
      5   4   8  43         0.0000003921
      0   0  17  17        -0.0000003914
      0   6  42  28        -0.0000003910
      6   0  28  42        -0.0000003910
      1   4  17   6         0.0000003909
      4   1   6  17         0.0000003909
      0   5  17   4        -0.0000003880
      5   0   4  17        -0.0000003880
      0   2  20  36         0.0000003871
      2   0  36  20         0.0000003871
      1   5  43  20        -0.0000003855
      5   1  20  43        -0.0000003855
      0   5  17  16         0.0000003824
      5   0  16  17         0.0000003824
      1   5  26  19         0.0000003792
      5   1  19  26         0.0000003792
      2   4  28  16        -0.0000003723
      4   2  16  28        -0.0000003723
      1   4  41   9        -0.0000003719
      4   1   9  41        -0.0000003719
      1   4  18   2         0.0000003688
      4   1   2  18         0.0000003688
      1   4  43  31        -0.0000003684
      4   1  31  43        -0.0000003684
      0   5  18  19         0.0000003682
      5   0  19  18         0.0000003682
      0   4  42  26        -0.0000003650
      4   0  26  42        -0.0000003650
      3   6  43   8        -0.0000003635
      6   3   8  43        -0.0000003635
      6   7  34  39         0.0000003615
      7   6  39  34         0.0000003615
      1   5  28   6         0.0000003607
      5   1   6  28         0.0000003607
      1   2  17   5        -0.0000003592
      2   1   5  17        -0.0000003592
      0   7  42  22        -0.0000003590
      7   0  22  42        -0.0000003590
      1   7  42  27        -0.0000003574
      7   1  27  42        -0.0000003574
      0   4  22  17        -0.0000003549
      4   0  17  22        -0.0000003549
      0   5  43  16        -0.0000003505
      5   0  16  43        -0.0000003505
      4   5  42   0         0.0000003434
      5   4   0  42         0.0000003434
      1   4  20  34         0.0000003430
      4   1  34  20         0.0000003430
      0   5  41  17         0.0000003414
      5   0  17  41         0.0000003414
      3   5  17  42        -0.0000003371
      5   3  42  17        -0.0000003371
      0   1  22   0        -0.0000003371
      1   0   0  22        -0.0000003371
      4   7  43  23        -0.0000003295
      7   4  23  43        -0.0000003295
      0   7  43  24         0.0000003293
      7   0  24  43         0.0000003293
      1   7  42   6        -0.0000003277
      7   1   6  42        -0.0000003277
      2   4  10  26         0.0000003163
      4   2  26  10         0.0000003163
      1   5  42  17        -0.0000003160
      5   1  17  42        -0.0000003160
      0   5  42  36         0.0000003134
      5   0  36  42         0.0000003134
      1   4  28   2        -0.0000003124
      4   1   2  28        -0.0000003124
      4   6  43  32        -0.0000002938
      6   4  32  43        -0.0000002938
      2   3  43  20        -0.0000002921
      3   2  20  43        -0.0000002921
      2   4  35  28         0.0000002900
      4   2  28  35         0.0000002900
      4   6  17  42        -0.0000002874
      6   4  42  17        -0.0000002874
      0   3   2  30         0.0000002795
      3   0  30   2         0.0000002795
      0   4   2   9         0.0000002778
      4   0   9   2         0.0000002778
      1   7  21  27         0.0000002756
      7   1  27  21         0.0000002756
      1   4   4  26        -0.0000002751
      4   1  26   4        -0.0000002751
      4   7  41  42         0.0000002737
      7   4  42  41         0.0000002737
      0   3  20  13        -0.0000002701
      3   0  13  20        -0.0000002701
      0   6  39  15         0.0000002669
      6   0  15  39         0.0000002669
      0   7  21  39        -0.0000002654
      7   0  39  21        -0.0000002654
      0   7  27  35         0.0000002636
      7   0  35  27         0.0000002636
      3   5  43  32        -0.0000002629
      5   3  32  43        -0.0000002629
      1   7  23  14        -0.0000002611
      7   1  14  23        -0.0000002611
      0   2  32  33         0.0000002590
      2   0  33  32         0.0000002590
      3   7  19  43        -0.0000002569
      7   3  43  19        -0.0000002569
      1   4  43   6         0.0000002557
      4   1   6  43         0.0000002557
      0   6  34  20        -0.0000002550
      6   0  20  34        -0.0000002550
      3   4  20  22        -0.0000002541
      4   3  22  20        -0.0000002541
      0   6  43   6        -0.0000002540
      6   0   6  43        -0.0000002540
      1   4   1   9         0.0000002529
      4   1   9   1         0.0000002529
      6   7  42   2         0.0000002481
      7   6   2  42         0.0000002481
      0   2   9  37        -0.0000002422
      2   0  37   9        -0.0000002422
      1   7  43  22         0.0000002403
      7   1  22  43         0.0000002403
      4   5  43  28         0.0000002390
      5   4  28  43         0.0000002390
      1   7  43   8         0.0000002386
      7   1   8  43         0.0000002386
      0   4  42   0        -0.0000002340
      4   0   0  42        -0.0000002340
      1   4  42  18         0.0000002310
      4   1  18  42         0.0000002310
      1   3  17  12        -0.0000002301
      3   1  12  17        -0.0000002301
      1   1  17  17        -0.0000002236
      0   4  32  24         0.0000002130
      4   0  24  32         0.0000002130
      0   3  31  22         0.0000002093
      3   0  22  31         0.0000002093
      0   2   0  14         0.0000002046
      2   0  14   0         0.0000002046
      0   5  43  17        -0.0000002023
      5   0  17  43        -0.0000002023
      1   3  20  21         0.0000002001
      3   1  21  20         0.0000002001
      5   5  38  43         0.0000001970
      5   5  43  38         0.0000001970
      0   2   2  20         0.0000001966
      2   0  20   2         0.0000001966
      0   6  43  26         0.0000001837
      6   0  26  43         0.0000001837
      0   6  43  27         0.0000001831
      6   0  27  43         0.0000001831
      1   4  36  28        -0.0000001808
      4   1  28  36        -0.0000001808
      1   4  42   8        -0.0000001793
      4   1   8  42        -0.0000001793
      1   3  38  35        -0.0000001722
      3   1  35  38        -0.0000001722
      2   7  22  40        -0.0000001689
      7   2  40  22        -0.0000001689
      4   7  23  43         0.0000001683
      7   4  43  23         0.0000001683
      0   0  20  20        -0.0000001682
      0   2  19  18         0.0000001672
      2   0  18  19         0.0000001672
      0   2  34  22        -0.0000001635
      2   0  22  34        -0.0000001635
      2   6  14  43         0.0000001619
      6   2  43  14         0.0000001619
      0   7  42  39        -0.0000001611
      7   0  39  42        -0.0000001611
      5   7  42  19        -0.0000001573
      7   5  19  42        -0.0000001573
      0   5  42  33        -0.0000001535
      5   0  33  42        -0.0000001535
      0   4  28  12         0.0000001516
      4   0  12  28         0.0000001516
      1   5  21  17        -0.0000001514
      5   1  17  21        -0.0000001514
      1   4  23  28        -0.0000001475
      4   1  28  23        -0.0000001475
      1   4  42  11         0.0000001455
      4   1  11  42         0.0000001455
      5   7  42  22        -0.0000001452
      7   5  22  42        -0.0000001452
      1   5  17  36         0.0000001446
      5   1  36  17         0.0000001446
      0   6  43  31         0.0000001407
      6   0  31  43         0.0000001407
      0   3  34  14         0.0000001400
      3   0  14  34         0.0000001400
      0   6  43   9         0.0000001368
      6   0   9  43         0.0000001368
      1   3  19  34         0.0000001333
      3   1  34  19         0.0000001333
      1   1  20  20        -0.0000001280
      2   3  17  42        -0.0000001240
      3   2  42  17        -0.0000001240
      0   1   0  22        -0.0000001232
      1   0  22   0        -0.0000001232
      3   7  38  22        -0.0000001224
      7   3  22  38        -0.0000001224
      2   4  42   9         0.0000001161
      4   2   9  42         0.0000001161
      4   5  28  43        -0.0000001119
      5   4  43  28        -0.0000001119
      2   6  43  26        -0.0000001113
      6   2  26  43        -0.0000001113
      3   5  42  17        -0.0000001100
      5   3  17  42        -0.0000001100
      1   5  17  10         0.0000001099
      5   1  10  17         0.0000001099
      1   7  23   3        -0.0000001096
      7   1   3  23        -0.0000001096
      0   6  20  39         0.0000001087
      6   0  39  20         0.0000001087
      5   7  42  11        -0.0000001066
      7   5  11  42        -0.0000001066
      4   7  43  21        -0.0000001063
      7   4  21  43        -0.0000001063
      6   6  20  42        -0.0000001001
      6   6  42  20        -0.0000001001
      3   6  43  28        -0.0000000983
      6   3  28  43        -0.0000000983
      3   7   7  43         0.0000000943
      7   3  43   7         0.0000000943
      0   2  10  32         0.0000000938
      2   0  32  10         0.0000000938
      2   4  42  26        -0.0000000910
      4   2  26  42        -0.0000000910
      0   4  42   9         0.0000000904
      4   0   9  42         0.0000000904
      0   3  31  34         0.0000000897
      3   0  34  31         0.0000000897
      1   4  43   9        -0.0000000815
      4   1   9  43        -0.0000000815
      0   4  43  18        -0.0000000796
      4   0  18  43        -0.0000000796
      0   5  42  20        -0.0000000757
      5   0  20  42        -0.0000000757
      1   7  43  19        -0.0000000739
      7   1  19  43        -0.0000000739
      1   5  23  29         0.0000000730
      5   1  29  23         0.0000000730
      5   7  40  39         0.0000000717
      7   5  39  40         0.0000000717
      0   5  32  23         0.0000000708
      5   0  23  32         0.0000000708
      2   7  43  14        -0.0000000706
      7   2  14  43        -0.0000000706
      2   7  42   7         0.0000000704
      7   2   7  42         0.0000000704
      0   6  42  18        -0.0000000654
      6   0  18  42        -0.0000000654
      1   5  10  17         0.0000000620
      5   1  17  10         0.0000000620
      3   4  28  42         0.0000000602
      4   3  42  28         0.0000000602
      0   4  43   8        -0.0000000589
      4   0   8  43        -0.0000000589
      1   6  32   3         0.0000000581
      6   1   3  32         0.0000000581
      1   3   1  29         0.0000000571
      3   1  29   1         0.0000000571
      1   7   8  38        -0.0000000562
      7   1  38   8        -0.0000000562
      0   1   4  23        -0.0000000517
      1   0  23   4        -0.0000000517
      0   7  24   4         0.0000000500
      7   0   4  24         0.0000000500
      0   5  17   1        -0.0000000497
      5   0   1  17        -0.0000000497
      0   7  43  14         0.0000000451
      7   0  14  43         0.0000000451
      0   3   1  20        -0.0000000419
      3   0  20   1        -0.0000000419
      4   6  20  43         0.0000000418
      6   4  43  20         0.0000000418
      6   7   1  43        -0.0000000412
      7   6  43   1        -0.0000000412
      0   4  43  28         0.0000000379
      4   0  28  43         0.0000000379
      1   4  10  28         0.0000000369
      4   1  28  10         0.0000000369
      0   6  20  22        -0.0000000349
      6   0  22  20        -0.0000000349
      2   5  22  28         0.0000000349
      5   2  28  22         0.0000000349
      0   3  19   0         0.0000000347
      3   0   0  19         0.0000000347
      4   5   0  42        -0.0000000333
      5   4  42   0        -0.0000000333
      0   3   0  39        -0.0000000290
      3   0  39   0        -0.0000000290
      1   4   2   8         0.0000000273
      4   1   8   2         0.0000000273
      1   6  43   8         0.0000000224
      6   1   8  43         0.0000000224
      0   7  43   6        -0.0000000201
      7   0   6  43        -0.0000000201
      1   5  20  25         0.0000000194
      5   1  25  20         0.0000000194
      1   4  17  37        -0.0000000168
      4   1  37  17        -0.0000000168
      2   6  42  18        -0.0000000143
      6   2  18  42        -0.0000000143
      0   5  29  17        -0.0000000142
      5   0  17  29        -0.0000000142
      1   2  22  31        -0.0000000115
      2   1  31  22        -0.0000000115

    SCF energy       (wfn)                    =  -78.047146860896888
    Reference energy (file100)                =  -78.047146860896746

    Opposite-spin MP2 correlation energy      =   -0.243535060120334
    Same-spin MP2 correlation energy          =   -0.060234120025719
    MP2 correlation energy                    =   -0.303769180146054
      * MP2 total energy                      =  -78.350916041042794

    Opposite-spin CCSD correlation energy     =   -0.279794054461377
    Same-spin CCSD correlation energy         =   -0.054879909697107
    CCSD correlation energy                   =   -0.334673964158485
      * CCSD total energy                     =  -78.381820825055229


*** tstop() called on Berts-MacBook-Pro.local at Wed Dec  6 21:26:00 2017
Module time:
	user time   =     148.17 seconds =       2.47 minutes
	system time =       4.88 seconds =       0.08 minutes
	total time  =        153 seconds =       2.55 minutes
Total time:
	user time   =     204.36 seconds =       3.41 minutes
	system time =       6.16 seconds =       0.10 minutes
	total time  =        211 seconds =       3.52 minutes

*** Psi4 exiting successfully. Buy a developer a beer!
