
    -----------------------------------------------------------------------
          Psi4: An Open-Source Ab Initio Electronic Structure Package
                               Psi4 1.1 release

                         Git: Rev {HEAD} add49b9 


    R. M. Parrish, L. A. Burns, D. G. A. Smith, A. C. Simmonett,
    A. E. DePrince III, E. G. Hohenstein, U. Bozkaya, A. Yu. Sokolov,
    R. Di Remigio, R. M. Richard, J. F. Gonthier, A. M. James,
    H. R. McAlexander, A. Kumar, M. Saitow, X. Wang, B. P. Pritchard,
    P. Verma, H. F. Schaefer III, K. Patkowski, R. A. King, E. F. Valeev,
    F. A. Evangelista, J. M. Turney, T. D. Crawford, and C. D. Sherrill,
    J. Chem. Theory Comput. in press (2017).
    (doi: 10.1021/acs.jctc.7b00174)

    -----------------------------------------------------------------------


    Psi4 started on: Wednesday, 06 December 2017 10:08PM

    Process ID:  12033
    PSIDATADIR: /anaconda3/share/psi4
    Memory:     500.0 MiB
    Threads:    1
    
  ==> Input File <==

--------------------------------------------------------------------------
"""This is a template for psi4 input format."""
import numpy
import sys

from openfermion.config import *
from openfermion.ops._interaction_tensor import (one_body_basis_change,
                                              two_body_basis_change)
from openfermion.hamiltonians import MolecularData
from numpy import array

sys.path.append('/Users/wadejong/Desktop/Quantum-Computing/OpenFermion/OpenFermion-Psi4/openfermionpsi4')
from _psi4_conversion_functions import *

# Set number of threads in PSI4
set_num_threads(8)

# Set memory that job can use in megabytes.
memory 8000 mb

# Initialize molecular data.
_description = 'ethylene_1.17810'
if _description == 'None':
    _description = None
molecule = MolecularData([['C', array([ 0.      ,  0.      ,  0.673055])], ['C', array([ 0.      ,  0.      , -0.673055])], ['H', array([ 0.      ,  0.934981,  1.246807])], ['H', array([ 0.      , -0.934981,  1.246807])], ['H', array([ 0.86380981, -0.35780174, -1.246807  ])], ['H', array([-0.86380981,  0.35780174, -1.246807  ])]],
                         'DZP',
                         1,
                         0,
                         _description,
                          filename='/Users/wadejong/Desktop/QCQCSiddiqi/8_Qubit_Simulation/data/H4-C2_DZP_singlet_ethylene_1.17810')

# Set molecular geometry and symmetry.
molecule mol {
C 0.0 0.0 0.673055
C 0.0 0.0 -0.673055
H 0.0 0.934981 1.246807
H 0.0 -0.934981 1.246807
H 0.8638098091869354 -0.35780173827614403 -1.246807
H -0.8638098091869354 0.35780173827614403 -1.246807
symmetry c1
}
mol.set_multiplicity(1)
mol.set_molecular_charge(0)

# Set reference and guess.
if molecule.multiplicity == 1:
    set reference rhf
    set guess sad
    set sad_frac_occ true
else:
    set reference rohf
    set guess sad
    set sad_frac_occ true

# Set global parameters of calculation.
set globals {
    basis DZP
    freeze_core false
    fail_on_maxiter true
    df_scf_guess false
    guess sad
    sad_frac_occ true
    opdm false
    tpdm false
    soscf true
    scf_type pk
    diis true
    maxiter 1e6
    num_amps_print 1e6
    r_convergence 1e-7
    d_convergence 1e-7
    e_convergence 1e-7
    ints_tolerance EQUALITY_TOLERANCE
    damping_percentage 0
}

# Run self-consistent field (SCF) calculation.
if True:
    try:

        hf_energy, hf_wavefunction = energy('scf', return_wfn=True)
        scf_wfn = hf_wavefunction
        if True:
            print('Hartree-Fock energy for {} ({} electrons) is {}.'.format(
                molecule.name, molecule.n_electrons, hf_energy))
    except:
        if True:
            print('WARNING: SCF calculation failed.')
        else:
            raise
    else:
        # Get orbitals and Fock matrix.
        molecule.hf_energy = hf_energy
        molecule.nuclear_repulsion = mol.nuclear_repulsion_energy()
        molecule.canonical_orbitals = numpy.asarray(hf_wavefunction.Ca())
        molecule.n_orbitals = molecule.canonical_orbitals.shape[0]
        molecule.n_qubits = 2 * molecule.n_orbitals
        molecule.orbital_energies = numpy.asarray(hf_wavefunction.epsilon_a())
        molecule.fock_matrix = numpy.asarray(hf_wavefunction.Fa())

        # Get integrals using MintsHelper.
        mints = MintsHelper(hf_wavefunction.basisset())
        molecule.one_body_integrals = one_body_basis_change(
            numpy.asarray(mints.ao_kinetic()), molecule.canonical_orbitals)
        molecule.one_body_integrals += one_body_basis_change(
            numpy.asarray(mints.ao_potential()), molecule.canonical_orbitals)
        two_body_integrals = numpy.asarray(mints.ao_eri())
        two_body_integrals.reshape((molecule.n_orbitals, molecule.n_orbitals,
                                    molecule.n_orbitals, molecule.n_orbitals))
        two_body_integrals = numpy.einsum('psqr', two_body_integrals)
        two_body_integrals = two_body_basis_change(
            two_body_integrals, molecule.canonical_orbitals)
        molecule.two_body_integrals = two_body_integrals
        molecule.save()


# Perform MP2 energy calculation if there are at least two electrons.
if True:
    try:
        assert molecule.n_electrons > 1
        mp2_energy = energy('mp2',ref_wfn=scf_wfn)
        if True:
            print('MP2 energy for {} ({} electrons) is {}.'.format(
                molecule.name, molecule.n_electrons, mp2_energy))
    except:
        if True:
            print('WARNING: MP2 calculation failed.')
        else:
            raise
    else:
        molecule.mp2_energy = mp2_energy
        molecule.save()


# Perform configuration interaction singles and doubles (CISD) calculation.
if True:
    set qc_module detci
    try:
        cisd_energy, cisd_wavefunction = energy('cisd', ref_wfn=scf_wfn, return_wfn=True)
        if True:
            print('CISD energy for {} ({} electrons) is {}.'.format(
                molecule.name, molecule.n_electrons, cisd_energy))
    except:
        if True:
            print('WARNING: CISD calculation failed.')
        else:
            raise
    else:
        # For the functions below, "a" and "b" refer to "up and "down" spins.
        molecule.cisd_energy = cisd_energy

        # Get 1-RDM from CISD calculation.
        """cisd_one_rdm_a = numpy.array(cisd_wavefunction.get_opdm(
            0, 0, 'A', True)).reshape(molecule.n_orbitals, molecule.n_orbitals)
        cisd_one_rdm_b = numpy.array(cisd_wavefunction.get_opdm(
            0, 0, 'B', True)).reshape(molecule.n_orbitals, molecule.n_orbitals)

        # Get 2-RDM from CISD calculation.
        cisd_two_rdm_aa = numpy.array(cisd_wavefunction.get_tpdm(
            'AA', False)).reshape(molecule.n_orbitals, molecule.n_orbitals,
                                  molecule.n_orbitals, molecule.n_orbitals)
        cisd_two_rdm_ab = numpy.array(cisd_wavefunction.get_tpdm(
            'AB', False)).reshape(molecule.n_orbitals, molecule.n_orbitals,
                                  molecule.n_orbitals, molecule.n_orbitals)
        cisd_two_rdm_bb = numpy.array(cisd_wavefunction.get_tpdm(
            'BB', False)).reshape(molecule.n_orbitals, molecule.n_orbitals,
                                  molecule.n_orbitals, molecule.n_orbitals)

        # Get overall RDMs.
        cisd_one_rdm, cisd_two_rdm = unpack_spatial_rdm(
            cisd_one_rdm_a, cisd_one_rdm_b, cisd_two_rdm_aa,
            cisd_two_rdm_ab, cisd_two_rdm_bb)

        # Store 1-RDM in molecule file, 2-RDM separately in other file.
        molecule.cisd_one_rdm = cisd_one_rdm
        molecule.cisd_two_rdm = cisd_two_rdm
        molecule.save()"""


# Perform exact diagonalization.
if False:
    set qc_module detci
    try:
        fci_energy, fci_wavefunction = energy('fci', ref_wfn=scf_wfn, return_wfn=True)
        if True:
            print('FCI energy for {} ({} electrons) is {}.'.format(
                molecule.name, molecule.n_electrons, fci_energy))
    except:
        if True:
            print('WARNING: FCI calculation failed.')
        else:
            raise
    else:
        # For the functions below, "a" and "b" refer to "up and "down" spins.
        molecule.fci_energy = fci_energy

        # Get 1-RDM from FCI calculation.
        """fci_one_rdm_a = numpy.array(fci_wavefunction.get_opdm(
            0, 0, 'A', True)).reshape(molecule.n_orbitals, molecule.n_orbitals)
        fci_one_rdm_b = numpy.array(fci_wavefunction.get_opdm(
            0, 0, 'B', True)).reshape(molecule.n_orbitals, molecule.n_orbitals)

        # Get 2-RDM from FCI calculation.
        fci_two_rdm_aa = numpy.array(fci_wavefunction.get_tpdm(
            'AA', False)).reshape(molecule.n_orbitals, molecule.n_orbitals,
                                  molecule.n_orbitals, molecule.n_orbitals)
        fci_two_rdm_ab = numpy.array(fci_wavefunction.get_tpdm(
            'AB', False)).reshape(molecule.n_orbitals, molecule.n_orbitals,
                                  molecule.n_orbitals, molecule.n_orbitals)
        fci_two_rdm_bb = numpy.array(fci_wavefunction.get_tpdm(
            'BB', False)).reshape(molecule.n_orbitals, molecule.n_orbitals,
                                  molecule.n_orbitals, molecule.n_orbitals)

        # Get overall RDMs.
        fci_one_rdm, fci_two_rdm = unpack_spatial_rdm(
            fci_one_rdm_a, fci_one_rdm_b,
            fci_two_rdm_aa, fci_two_rdm_ab, fci_two_rdm_bb)

        # Store 1-RDM in molecule file, 2-RDM separately in other file.
        molecule.fci_one_rdm = fci_one_rdm
        molecule.fci_two_rdm = fci_two_rdm
        molecule.save()"""


# Perform coupled cluster singles and doubles (CCSD) calculation.
if True:
    set qc_module ccenergy
    try:
        ccsd_energy = energy('ccsd',ref_wfn=scf_wfn)
        if True:
            print('CCSD energy for {} ({} electrons) is {}.'.format(
                molecule.name, molecule.n_electrons, ccsd_energy))
    except:
        if True:
            print('WARNING: CCSD calculation failed.')
        else:
            raise
    else:
        molecule.ccsd_energy = ccsd_energy

        # Merge CC amplitudes into molecule by parsing
        psi_filename = outfile_name()
        ccsd_amplitudes = parse_psi4_ccsd_amplitudes(
            2 * molecule.n_orbitals,
            molecule.get_n_alpha_electrons(),
            molecule.get_n_beta_electrons(),
            psi_filename)
        molecule.ccsd_amplitudes = ccsd_amplitudes
        molecule.save()
--------------------------------------------------------------------------
  Python driver attempted to set threads to 8.
  Psi4 was compiled without OpenMP, setting threads to 1.

  Memory set to   7.451 GiB by Python driver.

*** tstart() called on Berts-MacBook-Pro.local
*** at Wed Dec  6 22:08:54 2017

   => Loading Basis Set <=

    Name: DZP
    Role: ORBITAL
    Keyword: BASIS
    atoms 1-2 entry C          line    73 file /anaconda3/share/psi4/basis/dzp.gbs 
    atoms 3-6 entry H          line    16 file /anaconda3/share/psi4/basis/dzp.gbs 


         ---------------------------------------------------------
                                   SCF
            by Justin Turney, Rob Parrish, and Andy Simmonett
                              RHF Reference
                        1 Threads,   7629 MiB Core
         ---------------------------------------------------------

  ==> Geometry <==

    Molecular point group: c1
    Full point group: D2

    Geometry (in Angstrom), charge = 0, multiplicity = 1:

       Center              X                  Y                   Z               Mass       
    ------------   -----------------  -----------------  -----------------  -----------------
           C          0.000000000000     0.000000000000     0.673055000000    12.000000000000
           C          0.000000000000     0.000000000000    -0.673055000000    12.000000000000
           H          0.519447612039     0.777408289580     1.246807000000     1.007825032070
           H         -0.519447612039    -0.777408289580     1.246807000000     1.007825032070
           H          0.519447612039    -0.777408289580    -1.246807000000     1.007825032070
           H         -0.519447612039     0.777408289580    -1.246807000000     1.007825032070

  Running in c1 symmetry.

  Rotational constants: A =      4.78350  B =      0.92489  C =      0.86117 [cm^-1]
  Rotational constants: A = 143405.72603  B =  27727.56850  C =  25817.29442 [MHz]
  Nuclear repulsion =   32.994877691951970

  Charge       = 0
  Multiplicity = 1
  Electrons    = 16
  Nalpha       = 8
  Nbeta        = 8

  ==> Algorithm <==

  SCF Algorithm Type is PK.
  DIIS enabled.
  MOM disabled.
  Fractional occupation disabled.
  Guess Type is SAD.
  Energy threshold   = 1.00e-07
  Density threshold  = 1.00e-07
  Integral threshold = 0.00e+00

  ==> Primary Basis <==

  Basis Set: DZP
    Blend: DZP
    Number of shells: 26
    Number of basis function: 52
    Number of Cartesian functions: 52
    Spherical Harmonics?: false
    Max angular momentum: 2

  ==> Pre-Iterations <==

   -------------------------------------------------------
    Irrep   Nso     Nmo     Nalpha   Nbeta   Ndocc  Nsocc
   -------------------------------------------------------
     A         52      52       0       0       0       0
   -------------------------------------------------------
    Total      52      52       8       8       8       0
   -------------------------------------------------------

  ==> Integral Setup <==

  Using in-core PK algorithm.
   Calculation information:
      Number of atoms:                   6
      Number of AO shells:              26
      Number of primitives:             50
      Number of atomic orbitals:        52
      Number of basis functions:        52

      Integral cutoff                 1.00e-12
      Number of threads:                 1

  Performing in-core PK
  Using 1900262 doubles for integral storage.
  We computed 61769 shell quartets total.
  Whereas there are 61776 unique shell quartets.
  ==> DiskJK: Disk-Based J/K Matrices <==

    J tasked:                  Yes
    K tasked:                  Yes
    wK tasked:                  No
    Memory (MB):              5722
    Schwarz Cutoff:          1E-12

    OpenMP threads:              1
  Minimum eigenvalue in the overlap matrix is 9.1241570935E-03.
  Using Symmetric Orthogonalization.

  SCF Guess: Superposition of Atomic Densities via on-the-fly atomic UHF.

  ==> Iterations <==

                        Total Energy        Delta E     RMS |[F,P]|

   @RHF iter   0:   -69.16351007811478   -6.91635e+01   1.01491e-01 
   @RHF iter   1:   -74.18233335426837   -5.01882e+00   4.01325e-02 
   @RHF iter   2:   -77.05721157100466   -2.87488e+00   2.46143e-02 DIIS/DAMP
   @RHF iter   3:   -77.93796851288039   -8.80757e-01   2.44210e-03 DIIS/DAMP
   @RHF iter   4:   -77.95027606537755   -1.23076e-02   4.41583e-04 SOSCF, nmicro = 4/DAMP
   @RHF iter   5:   -77.95101949542850   -7.43430e-04   2.31337e-06 SOSCF, nmicro = 4/DAMP
   @RHF iter   6:   -77.95101950959824   -1.41697e-08   4.22011e-09 SOSCF, conv/DAMP

  ==> Post-Iterations <==

    Orbital Energies (a.u.)
    -----------------------

    Doubly Occupied:                                                      

       1A    -11.248826     2A    -11.247326     3A     -1.030786  
       4A     -0.790459     5A     -0.614343     6A     -0.586021  
       7A     -0.560178     8A     -0.295640  

    Virtual:                                                              

       9A      0.080329    10A      0.257137    11A      0.319583  
      12A      0.330510    13A      0.406242    14A      0.412073  
      15A      0.451963    16A      0.452857    17A      0.473558  
      18A      0.563371    19A      0.589595    20A      0.688297  
      21A      0.816153    22A      1.005727    23A      1.218980  
      24A      1.266388    25A      1.296818    26A      1.377490  
      27A      1.546209    28A      1.642105    29A      1.772640  
      30A      1.961677    31A      1.966713    32A      2.040480  
      33A      2.083384    34A      2.120576    35A      2.226206  
      36A      2.435436    37A      2.458896    38A      2.469682  
      39A      2.599758    40A      2.792329    41A      2.876884  
      42A      2.908511    43A      2.936531    44A      3.192250  
      45A      3.411738    46A      3.513338    47A      3.581632  
      48A      3.740731    49A      4.255597    50A      4.492446  
      51A     27.638390    52A     27.651732  

    Final Occupation by Irrep:
              A 
    DOCC [     8 ]

  Energy converged.

  @RHF Final Energy:   -77.95101950959824

   => Energetics <=

    Nuclear Repulsion Energy =             32.9948776919519702
    One-Electron Energy =                -169.1446351977012910
    Two-Electron Energy =                  58.1987379961511024
    DFT Exchange-Correlation Energy =       0.0000000000000000
    Empirical Dispersion Energy =           0.0000000000000000
    PCM Polarization Energy =               0.0000000000000000
    EFP Energy =                            0.0000000000000000
    Total Energy =                        -77.9510195095982397



Properties will be evaluated at   0.000000,   0.000000,   0.000000 Bohr

Properties computed using the SCF density matrix

  Nuclear Dipole Moment: (a.u.)
     X:     0.0000      Y:     0.0000      Z:     0.0000

  Electronic Dipole Moment: (a.u.)
     X:    -0.0000      Y:    -0.0000      Z:     0.0000

  Dipole Moment: (a.u.)
     X:    -0.0000      Y:    -0.0000      Z:     0.0000     Total:     0.0000

  Dipole Moment: (Debye)
     X:    -0.0000      Y:    -0.0000      Z:     0.0000     Total:     0.0000


*** tstop() called on Berts-MacBook-Pro.local at Wed Dec  6 22:08:54 2017
Module time:
	user time   =       0.39 seconds =       0.01 minutes
	system time =       0.13 seconds =       0.00 minutes
	total time  =          0 seconds =       0.00 minutes
Total time:
	user time   =       0.39 seconds =       0.01 minutes
	system time =       0.13 seconds =       0.00 minutes
	total time  =          0 seconds =       0.00 minutes

*** tstart() called on Berts-MacBook-Pro.local
*** at Wed Dec  6 22:08:59 2017


  //>>>>>>>>>>>>>>>>>>>>>>>>>>>>>>>>>>>//
  //               DFMP2               //
  //<<<<<<<<<<<<<<<<<<<<<<<<<<<<<<<<<<<//

   => Loading Basis Set <=

    Name: (DZP AUX)
    Role: RIFIT
    Keyword: DF_BASIS_MP2
    atoms 1-2 entry C          line   269 file /anaconda3/share/psi4/basis/def2-qzvpp-ri.gbs 
    atoms 3-6 entry H          line    23 file /anaconda3/share/psi4/basis/def2-qzvpp-ri.gbs 

	 --------------------------------------------------------
	                          DF-MP2                         
	      2nd-Order Density-Fitted Moller-Plesset Theory     
	              RMP2 Wavefunction,   1 Threads             
	                                                         
	        Rob Parrish, Justin Turney, Andy Simmonett,      
	           Ed Hohenstein, and C. David Sherrill          
	 --------------------------------------------------------

   => Auxiliary Basis Set <=

  Basis Set: (DZP AUX)
    Blend: DEF2-QZVPP-RI
    Number of shells: 130
    Number of basis function: 506
    Number of Cartesian functions: 666
    Spherical Harmonics?: true
    Max angular momentum: 5

	 --------------------------------------------------------
	                 NBF =    52, NAUX =   506
	 --------------------------------------------------------
	   CLASS    FOCC     OCC    AOCC    AVIR     VIR    FVIR
	   PAIRS       0       8       8      44      44       0
	 --------------------------------------------------------

	-----------------------------------------------------------
	 ==================> DF-MP2 Energies <==================== 
	-----------------------------------------------------------
	 Reference Energy          =     -77.9510195095982397 [Eh]
	 Singles Energy            =      -0.0000000000000000 [Eh]
	 Same-Spin Energy          =      -0.0613540415416738 [Eh]
	 Opposite-Spin Energy      =      -0.2494864357420368 [Eh]
	 Correlation Energy        =      -0.3108404772837106 [Eh]
	 Total Energy              =     -78.2618599868819445 [Eh]
	-----------------------------------------------------------
	 ================> DF-SCS-MP2 Energies <================== 
	-----------------------------------------------------------
	 SCS Same-Spin Scale       =       0.3333333333333333 [-]
	 SCS Opposite-Spin Scale   =       1.2000000000000000 [-]
	 SCS Same-Spin Energy      =      -0.0204513471805579 [Eh]
	 SCS Opposite-Spin Energy  =      -0.2993837228904441 [Eh]
	 SCS Correlation Energy    =      -0.3198350700710020 [Eh]
	 SCS Total Energy          =     -78.2708545796692476 [Eh]
	-----------------------------------------------------------


*** tstop() called on Berts-MacBook-Pro.local at Wed Dec  6 22:08:59 2017
Module time:
	user time   =       0.29 seconds =       0.00 minutes
	system time =       0.04 seconds =       0.00 minutes
	total time  =          0 seconds =       0.00 minutes
Total time:
	user time   =       4.76 seconds =       0.08 minutes
	system time =       0.32 seconds =       0.01 minutes
	total time  =          5 seconds =       0.08 minutes
 MINTS: Wrapper to libmints.
   by Justin Turney

   Calculation information:
      Number of threads:                 1
      Number of atoms:                   6
      Number of AO shells:              26
      Number of SO shells:              26
      Number of primitives:             50
      Number of atomic orbitals:        52
      Number of basis functions:        52

      Number of irreps:                  1
      Integral cutoff                 0.00e+00
      Number of functions per irrep: [  52 ]

 OEINTS: Overlap, kinetic, potential, dipole, and quadrupole integrals
         stored in file 35.

      Computing two-electron integrals...done
      Computed 842846 non-zero two-electron integrals.
        Stored in file 33.


         ---------------------------------------------------------
                          Configuration Interaction
                            (a 'D E T C I' module)

                 C. David Sherrill, Daniel G. A. Smith, and
                              Matt L. Leininger
         ---------------------------------------------------------


   ==> Parameters <==

    EX LEVEL       =        2      H0 BLOCKSIZE  =     1000
    VAL EX LEVEL   =        0      H0 GUESS SIZE =     1000
    H0COUPLINGSIZE =        0      H0 COUPLING   =       NO
    MAXITER        =       24      NUM PRINT     =       20
    NUM ROOTS      =        1      ICORE         =        1
    PRINT LVL      =        1      FCI           =       NO
    R CONV         = 1.00e-07      MIXED         =      YES
    E CONV         = 1.00e-07      MIXED4        =      YES
    R4S            =       NO      REPL OTF      =       NO
    DIAG METHOD    =      SEM      FOLLOW ROOT   =        0
    PRECONDITIONER = DAVIDSON      UPDATE        = DAVIDSON
    S              =   0.0000      Ms0           =      YES
    GUESS VECTOR   =  H0BLOCK      OPENTYPE      =     NONE
    COLLAPSE SIZE  =        1      HD AVG        = EVANGELISTI
    MAX NUM VECS   =       25      REF SYM       =     AUTO
    IOPEN        =       NO

    EX ALLOW       =  1  1 
    STATE AVERAGE  =  0(1.00) 

   ==> CI Orbital and Space information <==

    RAS1 LVL      =        7      A RAS3 MAX    =        2
    RAS1 MIN      =       14      B RAS3 MAX    =        2
    A RAS1 LVL    =        7      RAS4 LVL      =       52
    A RAS1 MIN    =        6      A RAS4 MAX    =        0
    A RAS1 MAX    =        8      B RAS4 MAX    =        0
    B RAS1 LVL    =        7      RAS4 MAX      =        0
    B RAS1 MIN    =        6      A RAS34 MAX   =        2
    B RAS1 MAX    =        8      B RAS34 MAX   =        2
    RAS3 LVL      =        8      RAS34 MAX     =        2
    RAS3 MAX      =        2
   ------------------------------------
               Space    Total     A
   ------------------------------------
                 Nso       52    52
                 Nmo       52    52
               Ndocc        8     8
               Nsocc        0     0
   ------------------------------------
              CI Spaces
   ------------------------------------
        Dropped DOCC        0     0
                RAS1        8     8
                RAS2        0     0
                RAS3       44    44
                RAS4        0     0
      Active (total)       52    52
        Dropped UOCC        0     0
   ------------------------------------

   ==> Setting up CI strings <==

    There are 26841 alpha and 26841 beta strings
    The CI space requires 177585 (1.78E+05) determinants and 6 blocks

   ==> Transforming CI integrals <==

	Presorting SO-basis two-electron integrals.
	Sorting File: SO Ints (nn|nn) nbuckets = 1
	Transforming the one-electron integrals and constructing Fock matrices
	Starting first half-transformation.
	Sorting half-transformed integrals.
	First half integral transformation complete.
	Starting second half-transformation.
	Two-electron integral transformation complete.

   ==> Starting CI iterations <==

    H0 Block Eigenvalue = -78.00077628

    Simultaneous Expansion Method (Block Davidson Method)
    Using 1 initial trial vectors

     Iter   Root       Total Energy       Delta E      C RMS

   @CI  0:     0    -78.000776276337   -1.1100E+02   1.4710E+00  
   @CI  1:     0    -78.242498302845   -2.4172E-01   1.6100E-01  
   @CI  2:     0    -78.262285687954   -1.9787E-02   7.2550E-02  
   @CI  3:     0    -78.265297613050   -3.0119E-03   2.3856E-02  
   @CI  4:     0    -78.265524860716   -2.2725E-04   6.5709E-03  
   @CI  5:     0    -78.265542401325   -1.7541E-05   1.8586E-03  
   @CI  6:     0    -78.265543676153   -1.2748E-06   5.2411E-04  
   @CI  7:     0    -78.265543775749   -9.9596E-08   1.4868E-04  
   @CI  8:     0    -78.265543782743   -6.9940E-09   3.5187E-05  
   @CI  9:     0    -78.265543783145   -4.0214E-10   8.8205E-06  
   @CI 10:     0    -78.265543783169   -2.3732E-11   1.8778E-06  
   @CI 11:     0    -78.265543783170   -9.9476E-13   3.8737E-07  
    Warning: Norm of correction (root 0) is < 1.0E-13
   @CI 12:     0    -78.265543783170   -1.1369E-13   8.8041E-08 c

   ==> Energetics <==

    SCF energy =            0.000000000000000
    Total CI energy =     -78.265543783170088

   ==> CISD root 0 information <==

    CISD Root 0 energy =   -78.265543783170088

   The 20 most important determinants:

    *   1   -0.945308  (    0,    0)  1AX 2AX 3AX 4AX 5AX 6AX 7AX 8AX 
    *   2    0.118182  (    1,    1)  1AX 2AX 3AX 4AX 5AX 6AX 7AX 9AX 
    *   3    0.042090  (    1,   81)  1AX 2AX 3AX 4AX 5AX 6AX 7AX 9AA 19AB 
    *   4    0.042090  (   81,    1)  1AX 2AX 3AX 4AX 5AX 6AX 7AX 9AB 19AA 
    *   5   -0.030961  (    1,    2)  1AX 2AX 3AX 4AX 5AX 6AX 7AA 8AB 9AX 
    *   6   -0.030961  (    2,    1)  1AX 2AX 3AX 4AX 5AX 6AX 7AB 8AA 9AX 
    *   7    0.027085  (   99,   99)  1AX 2AX 3AX 4AX 5AX 7AX 8AX 21AX 
    *   8    0.022810  (    2,    2)  1AX 2AX 3AX 4AX 5AX 6AX 8AX 9AX 
    *   9    0.021794  (    1,   99)  1AX 2AX 3AX 4AX 5AX 6AA 7AX 8AB 9AA 21AB 
    *  10    0.021794  (   99,    1)  1AX 2AX 3AX 4AX 5AX 6AB 7AX 8AA 9AB 21AA 
    *  11    0.021377  (   81,   81)  1AX 2AX 3AX 4AX 5AX 6AX 7AX 19AX 
    *  12    0.019255  (    5,    5)  1AX 2AX 3AX 5AX 6AX 7AX 8AX 9AX 
    *  13    0.018842  (   73,   73)  1AX 2AX 3AX 4AX 5AX 6AX 7AX 18AX 
    *  14    0.018420  (   36,   36)  1AX 2AX 3AX 4AX 6AX 7AX 8AX 13AX 
    *  15   -0.018356  (    0,   73)  1AX 2AX 3AX 4AX 5AX 6AX 7AX 8AA 18AB 
    *  16   -0.018356  (   73,    0)  1AX 2AX 3AX 4AX 5AX 6AX 7AX 8AB 18AA 
    *  17    0.018007  (   43,   43)  1AX 2AX 3AX 4AX 5AX 7AX 8AX 14AX 
    *  18   -0.017470  (    2,   81)  1AX 2AX 3AX 4AX 5AX 6AX 7AB 8AA 9AA 19AB 
    *  19   -0.017470  (   81,    2)  1AX 2AX 3AX 4AX 5AX 6AX 7AA 8AB 9AB 19AA 
    *  20    0.017146  (   81,   99)  1AX 2AX 3AX 4AX 5AX 6AA 7AX 8AB 19AA 21AB 

		 "A good bug is a dead bug" 

			 - Starship Troopers

		 "I didn't write FORTRAN.  That's the problem."

			 - Edward Valeev
 MINTS: Wrapper to libmints.
   by Justin Turney

   Calculation information:
      Number of threads:                 1
      Number of atoms:                   6
      Number of AO shells:              26
      Number of SO shells:              26
      Number of primitives:             50
      Number of atomic orbitals:        52
      Number of basis functions:        52

      Number of irreps:                  1
      Integral cutoff                 0.00e+00
      Number of functions per irrep: [  52 ]

 OEINTS: Overlap, kinetic, potential, dipole, and quadrupole integrals
         stored in file 35.

      Computing two-electron integrals...done
      Computed 842846 non-zero two-electron integrals.
        Stored in file 33.


*** tstart() called on Berts-MacBook-Pro.local
*** at Wed Dec  6 22:09:50 2017


	Wfn Parameters:
	--------------------
	Wavefunction         = CCSD
	Number of irreps     = 1
	Number of MOs        = 52
	Number of active MOs = 52
	AO-Basis             = NONE
	Semicanonical        = false
	Reference            = RHF
	Print Level          = 1

	IRREP	# MOs	# FZDC	# DOCC	# SOCC	# VIRT	# FZVR
	-----	-----	------	------	------	------	------
	 A	   52	    0	    8	    0	    44	    0
	Transforming integrals...
	IWL integrals will be deleted.
	(OO|OO)...
	Presorting SO-basis two-electron integrals.
	Sorting File: SO Ints (nn|nn) nbuckets = 1
	Transforming the one-electron integrals and constructing Fock matrices
	Starting first half-transformation.
	Sorting half-transformed integrals.
	First half integral transformation complete.
	Starting second half-transformation.
	Two-electron integral transformation complete.
	(OO|OV)...
	Starting second half-transformation.
	Two-electron integral transformation complete.
	(OO|VV)...
	Starting second half-transformation.
	Two-electron integral transformation complete.
	(OV|OO)...
	Starting first half-transformation.
	Sorting half-transformed integrals.
	First half integral transformation complete.
	Starting second half-transformation.
	Two-electron integral transformation complete.
	(OV|OV)...
	Starting second half-transformation.
	Two-electron integral transformation complete.
	(OV|VV)...
	Starting second half-transformation.
	Two-electron integral transformation complete.
	(VV|OO)...
	Starting first half-transformation.
	Sorting half-transformed integrals.
	First half integral transformation complete.
	Starting second half-transformation.
	Two-electron integral transformation complete.
	(VV|OV)...
	Starting second half-transformation.
	Two-electron integral transformation complete.
	(VV|VV)...
	Starting second half-transformation.
	Two-electron integral transformation complete.
	Frozen core energy     =      0.00000000000000

	Size of irrep 0 of <ab|cd> integrals:      3.748 (MW) /     29.985 (MB)
	Total:                                     3.748 (MW) /     29.985 (MB)

	Size of irrep 0 of <ia|bc> integrals:      0.681 (MW) /      5.452 (MB)
	Total:                                     0.681 (MW) /      5.452 (MB)

	Size of irrep 0 of tijab amplitudes:       0.124 (MW) /      0.991 (MB)
	Total:                                     0.124 (MW) /      0.991 (MB)

	Nuclear Rep. energy          =     32.99487769195197
	SCF energy                   =    -77.95101950959824
	One-electron energy          =   -169.14463537571720
	Two-electron energy          =     58.19873817416685
	Reference energy             =    -77.95101950959838

*** tstop() called on Berts-MacBook-Pro.local at Wed Dec  6 22:09:51 2017
Module time:
	user time   =       0.26 seconds =       0.00 minutes
	system time =       0.48 seconds =       0.01 minutes
	total time  =          1 seconds =       0.02 minutes
Total time:
	user time   =      55.44 seconds =       0.92 minutes
	system time =       1.69 seconds =       0.03 minutes
	total time  =         57 seconds =       0.95 minutes

*** tstart() called on Berts-MacBook-Pro.local
*** at Wed Dec  6 22:09:51 2017

            **************************
            *                        *
            *        CCENERGY        *
            *                        *
            **************************

    Nuclear Rep. energy (wfn)     =   32.994877691951970
    SCF energy          (wfn)     =  -77.951019509598240
    Reference energy    (file100) =  -77.951019509598382

    Input parameters:
    -----------------
    Wave function   =     CCSD
    Reference wfn   =     RHF
    Brueckner       =     No
    Memory (Mbytes) =     8000.0
    Maxiter         =   1000000
    R_Convergence   =     1.0e-07
    E_Convergence   =     1.0e-07
    Restart         =     Yes
    DIIS            =     Yes
    AO Basis        =     NONE
    ABCD            =     NEW
    Cache Level     =     2
    Cache Type      =     LOW
    Print Level     =     1
    Num. of threads =     1
    # Amps to Print =     1000000
    Print MP2 Amps? =     No
    Analyze T2 Amps =     No
    Print Pair Ener =     No
    Local CC        =     No
    SCS-MP2         =     False
    SCSN-MP2        =     False
    SCS-CCSD        =     False

MP2 correlation energy -0.3108488443947992
                Solving CC Amplitude Equations
                ------------------------------
  Iter             Energy              RMS        T1Diag      D1Diag    New D1Diag    D2Diag
  ----     ---------------------    ---------   ----------  ----------  ----------   --------
     0        -0.310848844394799    0.000e+00    0.000000    0.000000    0.000000    0.172594
     1        -0.331606788839961    6.440e-02    0.007573    0.027590    0.027590    0.199803
     2        -0.343911672645928    3.506e-02    0.009861    0.036802    0.036802    0.235612
     3        -0.346463857975067    1.751e-02    0.011895    0.045092    0.045092    0.262118
     4        -0.346902631813376    7.815e-03    0.012236    0.046716    0.046716    0.278173
     5        -0.346974877101072    1.953e-03    0.012168    0.046463    0.046463    0.280488
     6        -0.346964387417032    5.714e-04    0.012136    0.046319    0.046319    0.280548
     7        -0.346965576237496    1.963e-04    0.012131    0.046287    0.046287    0.280604
     8        -0.346964968530994    5.076e-05    0.012132    0.046289    0.046289    0.280594
     9        -0.346964975770227    1.474e-05    0.012132    0.046291    0.046291    0.280596
    10        -0.346965487756967    4.571e-06    0.012133    0.046293    0.046293    0.280599
    11        -0.346965454312665    1.346e-06    0.012133    0.046293    0.046293    0.280599
    12        -0.346965474959917    3.483e-07    0.012133    0.046293    0.046293    0.280599
    13        -0.346965466585729    1.161e-07    0.012133    0.046294    0.046294    0.280599
    14        -0.346965469036153    3.634e-08    0.012133    0.046293    0.046293    0.280599

    Iterations converged.


    Largest TIA Amplitudes:
              7   9         0.0340245375
              7   6         0.0264121077
              7  20         0.0081713382
              6   9         0.0077486232
              7   8         0.0076550683
              7  17        -0.0066787562
              7  29         0.0052899022
              4   4         0.0047684996
              5   5         0.0044378003
              6   8         0.0042213310
              5  22         0.0041428501
              3  13         0.0041138271
              3  23         0.0036134412
              6   6         0.0033620279
              4  21        -0.0029933095
              2  22         0.0026902528
              2  26        -0.0026278317
              2  40         0.0025871434
              4   0         0.0025867447
              6  33         0.0025706807
              2   2        -0.0025310517
              7  24         0.0023227557
              5  34        -0.0023198940
              4  32         0.0021968846
              6  17        -0.0020630441
              4  15         0.0020084358
              7  33        -0.0019772069
              4  10        -0.0019751842
              3  41         0.0018462286
              5  18         0.0018236998
              3  27        -0.0016601848
              4  25         0.0016132278
              6  24        -0.0016110995
              2   5         0.0015778390
              3  35         0.0015366796
              5  11        -0.0013693313
              3   1        -0.0013689061
              7  39         0.0013480004
              4  38         0.0013359351
              3  36         0.0013071069
              6  20         0.0012296766
              6  39         0.0011667933
              5  14        -0.0010826671
              2  30        -0.0010730041
              2  11         0.0009708179
              5  37        -0.0009535725
              3  12         0.0008864568
              2  37         0.0008828552
              2  14         0.0008368664
              3  19        -0.0008295361
              5  26         0.0007583918
              5   2        -0.0007301661
              1  13        -0.0005730338
              3  31        -0.0005225578
              4  28         0.0005119607
              0  40        -0.0004551587
              5  40         0.0004507328
              1  41        -0.0003892923
              1   1        -0.0003309114
              3   3        -0.0003092539
              0  11        -0.0003065519
              0  14        -0.0003026593
              5  30         0.0002959903
              2  34        -0.0002951864
              0   2        -0.0002658005
              1  12        -0.0002464471
              1  35        -0.0002326542
              4   7        -0.0002257582
              0  37        -0.0001835337
              0   5        -0.0001520033
              1   3        -0.0001503488
              6  29        -0.0001491754
              1  27        -0.0001337817
              1  36        -0.0001236996
              2  42         0.0001196060
              0  22        -0.0001194121
              1  23        -0.0001026740
              1  43         0.0000963252
              0  42         0.0000959122
              3  43         0.0000909658
              3  16         0.0000811466
              1  16        -0.0000471386
              0  34        -0.0000423580
              5  42         0.0000169632
              0  18         0.0000055882
              1  31        -0.0000038916
              2  18        -0.0000030173
              0  30         0.0000022669
              0  26         0.0000018812
              1  19         0.0000013153

    Largest TIjAb Amplitudes:
      7   7   0   0        -0.2135809112
      7   7   0  10        -0.0632696811
      7   7  10   0        -0.0632696811
      6   7   0   0        -0.0413712258
      7   6   0   0        -0.0413712258
      5   5  12  12        -0.0315413950
      6   6   0   0        -0.0276501807
      7   7  10  10        -0.0246131394
      5   7  12   0        -0.0244866313
      7   5   0  12        -0.0244866313
      6   7   0  10        -0.0238941204
      7   6  10   0        -0.0238941204
      4   4   4   4        -0.0224774576
      5   5   5   5        -0.0218341595
      3   3   0   0        -0.0216542388
      7   7   9   9        -0.0211382234
      6   7   0   4        -0.0200225871
      7   6   4   0        -0.0200225871
      5   7  12  10        -0.0199830020
      7   5  10  12        -0.0199830020
      6   7  10   0        -0.0199465678
      7   6   0  10        -0.0199465678
      2   7   0  12        -0.0195882538
      7   2  12   0        -0.0195882538
      6   6   6   6        -0.0190794672
      3   7   2   0        -0.0184728635
      7   3   0   2        -0.0184728635
      2   7   0   3        -0.0181497141
      7   2   3   0        -0.0181497141
      3   7   0   2        -0.0179701493
      7   3   2   0        -0.0179701493
      4   6   4   6        -0.0173687106
      6   4   6   4        -0.0173687106
      2   7  12   0        -0.0173639310
      7   2   0  12        -0.0173639310
      4   7   0   9         0.0172621303
      7   4   9   0         0.0172621303
      5   7   5   9         0.0171214677
      7   5   9   5         0.0171214677
      2   7   1   0        -0.0168255922
      7   2   0   1        -0.0168255922
      4   7   9   0         0.0168170486
      7   4   0   9         0.0168170486
      4   7   4   9        -0.0165824221
      7   4   9   4        -0.0165824221
      2   7   0   1        -0.0163750235
      7   2   1   0        -0.0163750235
      4   5   4   5         0.0162423947
      5   4   5   4         0.0162423947
      7   7   0   7         0.0160844096
      7   7   7   0         0.0160844096
      5   6   5   6         0.0159079857
      6   5   6   5         0.0159079857
      6   6   3   3        -0.0156166623
      6   6   4   4        -0.0153112624
      6   7   6   9        -0.0151994950
      7   6   9   6        -0.0151994950
      5   5   0   0        -0.0151382716
      3   7   0  11         0.0148983763
      7   3  11   0         0.0148983763
      2   2  12  12        -0.0146099335
      7   7   4   4        -0.0145030512
      3   7   0   5        -0.0143418748
      7   3   5   0        -0.0143418748
      3   7   1   9        -0.0141769005
      7   3   9   1        -0.0141769005
      4   4   2   2        -0.0141079742
      4   6   2   3        -0.0141041206
      6   4   3   2        -0.0141041206
      3   5   1   5         0.0139763964
      5   3   5   1         0.0139763964
      5   6  12   0        -0.0139002094
      6   5   0  12        -0.0139002094
      2   7   3   0        -0.0138111672
      7   2   0   3        -0.0138111672
      7   7  11  11        -0.0136804929
      4   7   7   9        -0.0136679470
      7   4   9   7        -0.0136679470
      6   7  10  10        -0.0136643987
      7   6  10  10        -0.0136643987
      4   6   4   9         0.0136506722
      6   4   9   4         0.0136506722
      4   4   3   3        -0.0134568898
      4   4   9   9        -0.0134182196
      3   7   0  14        -0.0133928563
      7   3  14   0        -0.0133928563
      5   5   4   4        -0.0133675730
      4   4   0   0        -0.0133331160
      4   4   7   7        -0.0131859108
      3   5   2  12        -0.0131293395
      5   3  12   2        -0.0131293395
      5   7   0   3         0.0129234239
      7   5   3   0         0.0129234239
      3   3  12  12        -0.0129089248
      2   2   0   0        -0.0127265993
      3   7   5   0        -0.0126910758
      7   3   0   5        -0.0126910758
      3   6   1   6        -0.0125784621
      6   3   6   1        -0.0125784621
      2   5  13  12        -0.0124234848
      5   2  12  13        -0.0124234848
      3   4   1   4        -0.0124101689
      4   3   4   1        -0.0124101689
      3   6   0  18         0.0122916240
      6   3  18   0         0.0122916240
      6   6   2   2        -0.0121118358
      3   3   2   2        -0.0120536217
      2   7  13   0        -0.0120132230
      7   2   0  13        -0.0120132230
      2   7   1  10        -0.0119798713
      7   2  10   1        -0.0119798713
      4   6   3   2        -0.0119221469
      6   4   2   3        -0.0119221469
      5   6   4   3         0.0118226578
      6   5   3   4         0.0118226578
      2   7  13  10        -0.0117108288
      7   2  10  13        -0.0117108288
      2   7  12  10        -0.0116551743
      7   2  10  12        -0.0116551743
      3   3   1   1        -0.0116127622
      4   6   7   6        -0.0113816843
      6   4   6   7        -0.0113816843
      4   6   9   4         0.0112080337
      6   4   4   9         0.0112080337
      7   7   3   3        -0.0111878426
      4   4   0   4         0.0111806253
      4   4   4   0         0.0111806253
      2   7   0  16        -0.0111244730
      7   2  16   0        -0.0111244730
      5   7   3   0         0.0109685234
      7   5   0   3         0.0109685234
      3   3   5   5        -0.0108810574
      5   5   2   2        -0.0108710156
      5   6  12  10        -0.0106538358
      6   5  10  12        -0.0106538358
      3   7  13   9        -0.0106324581
      7   3   9  13        -0.0106324581
      7   7  12  12        -0.0105978967
      5   6  12   7        -0.0105585574
      6   5   7  12        -0.0105585574
      3   6  13   6        -0.0105448214
      6   3   6  13        -0.0105448214
      3   4  13   4        -0.0105162932
      4   3   4  13        -0.0105162932
      4   7   9  10         0.0105158473
      7   4  10   9         0.0105158473
      3   3  14  14        -0.0104488051
      3   5  13   5         0.0104321394
      5   3   5  13         0.0104321394
      6   7   0  15        -0.0104036908
      7   6  15   0        -0.0104036908
      3   7  14   0        -0.0103685766
      7   3   0  14        -0.0103685766
      4   5   7   5         0.0103167786
      5   4   5   7         0.0103167786
      3   4   0   3         0.0102298233
      4   3   3   0         0.0102298233
      4   4  18  18        -0.0101707534
      6   7   4   4         0.0101568447
      7   6   4   4         0.0101568447
      2   4   0  18         0.0100541321
      4   2  18   0         0.0100541321
      3   7   2  10        -0.0100179318
      7   3  10   2        -0.0100179318
      2   5   1  12        -0.0099956726
      5   2  12   1        -0.0099956726
      3   5   5  12        -0.0099919312
      5   3  12   5        -0.0099919312
      6   6  14  14        -0.0099905329
      4   6   4  17        -0.0099843529
      6   4  17   4        -0.0099843529
      6   7   9   9         0.0099683594
      7   6   9   9         0.0099683594
      6   6  18  18        -0.0099546718
      7   7   7  10         0.0098682690
      7   7  10   7         0.0098682690
      4   5   9  12         0.0098352446
      5   4  12   9         0.0098352446
      3   5  12   2        -0.0098220352
      5   3   2  12        -0.0098220352
      6   6   6   9         0.0097597508
      6   6   9   6         0.0097597508
      3   4   0  19         0.0097549053
      4   3  19   0         0.0097549053
      6   6  10  10        -0.0097256407
      4   6   6   4        -0.0096564882
      6   4   4   6        -0.0096564882
      5   5  15  15        -0.0096353139
      6   7   6   6        -0.0096189793
      7   6   6   6        -0.0096189793
      4   4  15  15        -0.0095953168
      4   4  14  14        -0.0095550521
      3   7   5  10        -0.0095496837
      7   3  10   5        -0.0095496837
      6   6  16  16        -0.0095346139
      7   7   1   1        -0.0094894784
      4   6  14   3        -0.0094774495
      6   4   3  14        -0.0094774495
      2   2  13  13        -0.0094769438
      4   7   6   0        -0.0094644008
      7   4   0   6        -0.0094644008
      3   5   3   2         0.0094619612
      5   3   2   3         0.0094619612
      4   4   4  15        -0.0094275495
      4   4  15   4        -0.0094275495
      6   6   0  10        -0.0093912433
      6   6  10   0        -0.0093912433
      3   5   2   3         0.0093892047
      5   3   3   2         0.0093892047
      6   6  17  17        -0.0093865794
      3   3   3   3        -0.0092975068
      4   6  15  17        -0.0092817557
      6   4  17  15        -0.0092817557
      4   4  19  19        -0.0092247027
      4   6   3  14        -0.0091463546
      6   4  14   3        -0.0091463546
      3   7   0  26         0.0091426611
      7   3  26   0         0.0091426611
      3   7   3   9        -0.0091129146
      7   3   9   3        -0.0091129146
      5   5  20  20        -0.0091118920
      4   5   2   4         0.0090990271
      5   4   4   2         0.0090990271
      6   7   7   0        -0.0090692465
      7   6   0   7        -0.0090692465
      4   6  19  18        -0.0090545977
      6   4  18  19        -0.0090545977
      3   3   2  14        -0.0089796529
      3   3  14   2        -0.0089796529
      5   7  12   7         0.0089717833
      7   5   7  12         0.0089717833
      2   7   2   9        -0.0089683713
      7   2   9   2        -0.0089683713
      4   4  16  16        -0.0089658944
      5   6   5   9        -0.0089585167
      6   5   9   5        -0.0089585167
      4   4   6   9         0.0089545272
      4   4   9   6         0.0089545272
      2   5  12  12        -0.0088576440
      5   2  12  12        -0.0088576440
      4   6  14  16        -0.0087924753
      6   4  16  14        -0.0087924753
      2   2   4   4        -0.0087566985
      4   6  16  14        -0.0087540852
      6   4  14  16        -0.0087540852
      2   7   0  13        -0.0087418177
      7   2  13   0        -0.0087418177
      7   7   6   6        -0.0087224653
      3   4   5   9         0.0086615013
      4   3   9   5         0.0086615013
      3   5   0  17        -0.0086497204
      5   3  17   0        -0.0086497204
      3   5   0  20         0.0086280575
      5   3  20   0         0.0086280575
      2   2   0  10        -0.0085951477
      2   2  10   0        -0.0085951477
      4   5   8  12        -0.0085677965
      5   4  12   8        -0.0085677965
      2   2  12  13        -0.0085447847
      2   2  13  12        -0.0085447847
      2   4  13   9         0.0085427759
      4   2   9  13         0.0085427759
      2   5  11   5         0.0084809237
      5   2   5  11         0.0084809237
      2   7  10  12        -0.0084799018
      7   2  12  10        -0.0084799018
      6   6  19  19        -0.0084476627
      5   7   5   6         0.0084209671
      7   5   6   5         0.0084209671
      5   6  15  16         0.0084155119
      6   5  16  15         0.0084155119
      2   5   0  21        -0.0084138383
      5   2  21   0        -0.0084138383
      4   7   9   4        -0.0083340905
      7   4   4   9        -0.0083340905
      5   5   4  15        -0.0082995344
      5   5  15   4        -0.0082995344
      3   3   0  10        -0.0082974937
      3   3  10   0        -0.0082974937
      6   6  15  15        -0.0082929746
      4   4   6   6        -0.0082813944
      3   3  13  13        -0.0082517851
      4   4   4   7        -0.0082394032
      4   4   7   4        -0.0082394032
      5   5   3   3        -0.0082344523
      5   7   0  12        -0.0082324809
      7   5  12   0        -0.0082324809
      5   7   0  16         0.0082156706
      7   5  16   0         0.0082156706
      5   5  22  22        -0.0081720595
      3   5  11  12        -0.0081705113
      5   3  12  11        -0.0081705113
      6   7   4   0        -0.0081636082
      7   6   0   4        -0.0081636082
      2   6   0  19         0.0080887518
      6   2  19   0         0.0080887518
      5   5  17  17        -0.0080667620
      3   3   1  13        -0.0080545392
      3   3  13   1        -0.0080545392
      6   6   4  10        -0.0080525477
      6   6  10   4        -0.0080525477
      2   2  10  10        -0.0080376785
      3   4   1   7        -0.0079904166
      4   3   7   1        -0.0079904166
      4   7   3  11        -0.0079766584
      7   4  11   3        -0.0079766584
      6   6   9   9        -0.0079587656
      3   6   1   9         0.0078823734
      6   3   9   1         0.0078823734
      5   5   3  12         0.0078485410
      5   5  12   3         0.0078485410
      4   4  17  17        -0.0078481440
      5   5   1   1        -0.0078323886
      2   7  10   1        -0.0078282764
      7   2   1  10        -0.0078282764
      7   7   6   9        -0.0078278906
      7   7   9   6        -0.0078278906
      2   5   2   5         0.0078250781
      5   2   5   2         0.0078250781
      3   6   5   4        -0.0077950877
      6   3   4   5        -0.0077950877
      3   5   5   1         0.0077860198
      5   3   1   5         0.0077860198
      6   6   3  16        -0.0077776539
      6   6  16   3        -0.0077776539
      4   6  18  19        -0.0076578400
      6   4  19  18        -0.0076578400
      4   4   2  14        -0.0076491951
      4   4  14   2        -0.0076491951
      2   4   1   9         0.0076423620
      4   2   9   1         0.0076423620
      3   3   9   9        -0.0076316611
      4   7   4  20         0.0076203037
      7   4  20   4         0.0076203037
      4   6   7   8        -0.0075970585
      6   4   8   7        -0.0075970585
      2   7  11   9        -0.0075827734
      7   2   9  11        -0.0075827734
      3   5   3  14         0.0075330721
      5   3  14   3         0.0075330721
      6   7  21   0        -0.0075210161
      7   6   0  21        -0.0075210161
      3   3   2   5        -0.0075055404
      3   3   5   2        -0.0075055404
      3   5   0   8         0.0074895612
      5   3   8   0         0.0074895612
      4   5  16  17         0.0074885991
      5   4  17  16         0.0074885991
      4   6  17  15        -0.0074679115
      6   4  15  17        -0.0074679115
      2   6   2   6        -0.0074329419
      6   2   6   2        -0.0074329419
      3   5  14   3         0.0074100265
      5   3   3  14         0.0074100265
      5   5  14  14        -0.0074100000
      5   6   4  16         0.0074083677
      6   5  16   4         0.0074083677
      2   4  11   7        -0.0074074854
      4   2   7  11        -0.0074074854
      2   2   6   6        -0.0074055078
      3   3  16  16        -0.0073883533
      2   3   0   9        -0.0073845931
      3   2   9   0        -0.0073845931
      6   7   7  10        -0.0073615706
      7   6  10   7        -0.0073615706
      6   6   2  14        -0.0073604677
      6   6  14   2        -0.0073604677
      6   6   7   7        -0.0073574969
      3   7   9   1        -0.0073569137
      7   3   1   9        -0.0073569137
      4   5   4  22         0.0073284543
      5   4  22   4         0.0073284543
      4   6  17   4        -0.0073271641
      6   4   4  17        -0.0073271641
      2   2  11  11        -0.0073120912
      2   6  13  10        -0.0072499651
      6   2  10  13        -0.0072499651
      3   3   4   4        -0.0072407108
      4   7   0  17        -0.0071805343
      7   4  17   0        -0.0071805343
      5   6  15   3         0.0071746470
      6   5   3  15         0.0071746470
      4   5   6  12        -0.0071728520
      5   4  12   6        -0.0071728520
      4   4   3  16        -0.0071660926
      4   4  16   3        -0.0071660926
      2   6  13   4        -0.0071623621
      6   2   4  13        -0.0071623621
      3   5  14  12        -0.0071356539
      5   3  12  14        -0.0071356539
      5   6  20  18        -0.0071292099
      6   5  18  20        -0.0071292099
      2   6   1  10        -0.0070608604
      6   2  10   1        -0.0070608604
      7   7   2   2        -0.0070580221
      5   5   2  14        -0.0070485119
      5   5  14   2        -0.0070485119
      2   7   0  23        -0.0070409839
      7   2  23   0        -0.0070409839
      2   5  12  27        -0.0070396818
      5   2  27  12        -0.0070396818
      2   5  12  13        -0.0070327634
      5   2  13  12        -0.0070327634
      4   5  14   4         0.0070273247
      5   4   4  14         0.0070273247
      3   4   0  16         0.0070252391
      4   3  16   0         0.0070252391
      7   7   1   3        -0.0070070602
      7   7   3   1        -0.0070070602
      6   6   4  15        -0.0069877424
      6   6  15   4        -0.0069877424
      3   6   4   2        -0.0069611085
      6   3   2   4        -0.0069611085
      3   6   5  10        -0.0069511323
      6   3  10   5        -0.0069511323
      2   6  11   6        -0.0069236085
      6   2   6  11        -0.0069236085
      3   7   9   3        -0.0068874477
      7   3   3   9        -0.0068874477
      6   6  11  11        -0.0068812713
      3   5   3   5         0.0068614000
      5   3   5   3         0.0068614000
      3   6  15  14        -0.0068542041
      6   3  14  15        -0.0068542041
      4   5  14  15         0.0068527595
      5   4  15  14         0.0068527595
      3   5  14  16         0.0068519636
      5   3  16  14         0.0068519636
      5   7   2   9         0.0068432943
      7   5   9   2         0.0068432943
      6   7   8   9        -0.0068188929
      7   6   9   8        -0.0068188929
      7   7  19  19        -0.0068027141
      3   3  10  10        -0.0068011670
      2   4   2   7        -0.0067934701
      4   2   7   2        -0.0067934701
      4   6   0  17         0.0067700927
      6   4  17   0         0.0067700927
      5   5  21  21        -0.0067699291
      3   5   0   6        -0.0067506037
      5   3   6   0        -0.0067506037
      2   2   1  13        -0.0067404404
      2   2  13   1        -0.0067404404
      2   4  12   9         0.0067326239
      4   2   9  12         0.0067326239
      5   5  11  11        -0.0067136924
      4   4   0  15         0.0066672614
      4   4  15   0         0.0066672614
      4   5  19  20        -0.0066599956
      5   4  20  19        -0.0066599956
      4   7   6  10        -0.0066571150
      7   4  10   6        -0.0066571150
      3   5  16  14         0.0066518458
      5   3  14  16         0.0066518458
      4   6   9  10         0.0066288132
      6   4  10   9         0.0066288132
      4   7   3   2         0.0066005553
      7   4   2   3         0.0066005553
      5   5   0   4         0.0065965084
      5   5   4   0         0.0065965084
      6   6   1   1        -0.0065828601
      4   6   6  10        -0.0065791789
      6   4  10   6        -0.0065791789
      3   4  13   7        -0.0065617208
      4   3   7  13        -0.0065617208
      3   7  10   2        -0.0065394146
      7   3   2  10        -0.0065394146
      5   7   1   4        -0.0065143170
      7   5   4   1        -0.0065143170
      3   6  18   0         0.0065120882
      6   3   0  18         0.0065120882
      2   7  10   3        -0.0065055492
      7   2   3  10        -0.0065055492
      2   2  15  15        -0.0065012942
      5   5   6   6        -0.0065003771
      3   3  19  19        -0.0064798436
      3   4   5   6        -0.0064753081
      4   3   6   5        -0.0064753081
      4   5  14   0        -0.0064583135
      5   4   0  14        -0.0064583135
      5   6  17  14         0.0064550850
      6   5  14  17         0.0064550850
      5   7   4  19         0.0064515104
      7   5  19   4         0.0064515104
      4   5   3  17         0.0064239882
      5   4  17   3         0.0064239882
      2   2   4  15        -0.0063984375
      2   2  15   4        -0.0063984375
      6   6   7  10        -0.0063975639
      6   6  10   7        -0.0063975639
      3   4   4  13        -0.0063936290
      4   3  13   4        -0.0063936290
      7   7  18  18        -0.0063859965
      3   6   3   6        -0.0063847340
      6   3   6   3        -0.0063847340
      4   6   6   7        -0.0063820656
      6   4   7   6        -0.0063820656
      3   5  12  22         0.0063658689
      5   3  22  12         0.0063658689
      3   3  17  17        -0.0063590760
      4   5   3   6         0.0063554609
      5   4   6   3         0.0063554609
      2   7  10  13        -0.0063525809
      7   2  13  10        -0.0063525809
      3   4   2   9         0.0063367615
      4   3   9   2         0.0063367615
      4   7   4   8         0.0063106172
      7   4   8   4         0.0063106172
      4   6   8   0        -0.0063069517
      6   4   0   8        -0.0063069517
      2   2   1  12        -0.0062891528
      2   2  12   1        -0.0062891528
      6   6   8   8        -0.0062878104
      4   7   8  10        -0.0062815327
      7   4  10   8        -0.0062815327
      4   7   9   7        -0.0062762654
      7   4   7   9        -0.0062762654
      3   3  18  18        -0.0062644735
      2   3   2   3        -0.0062603485
      3   2   3   2        -0.0062603485
      3   4  17  14        -0.0062313644
      4   3  14  17        -0.0062313644
      7   7   5   5        -0.0062096020
      5   7  15  19         0.0061938414
      7   5  19  15         0.0061938414
      7   7   1  12        -0.0061870973
      7   7  12   1        -0.0061870973
      3   3   3  16        -0.0061866841
      3   3  16   3        -0.0061866841
      2   3   1   5        -0.0061510038
      3   2   5   1        -0.0061510038
      2   6  12  10        -0.0061447676
      6   2  10  12        -0.0061447676
      2   5  27  12        -0.0061316752
      5   2  12  27        -0.0061316752
      5   7  12  15        -0.0061265002
      7   5  15  12        -0.0061265002
      3   3  15  15        -0.0061132657
      5   7  16   0         0.0060942486
      7   5   0  16         0.0060942486
      2   2   1   1        -0.0060933124
      2   4  13   6        -0.0060809927
      4   2   6  13        -0.0060809927
      7   7   0  15        -0.0060672930
      7   7  15   0        -0.0060672930
      2   2   9   9        -0.0060657356
      2   7  23   0        -0.0060585286
      7   2   0  23        -0.0060585286
      3   4   3   4        -0.0060583420
      4   3   4   3        -0.0060583420
      4   6  17   0         0.0060566341
      6   4   0  17         0.0060566341
      4   4  11  11        -0.0060466636
      7   7  13  13        -0.0060353863
      4   5   0   5        -0.0060228464
      5   4   5   0        -0.0060228464
      4   5  15  11        -0.0060221431
      5   4  11  15        -0.0060221431
      4   6   9   7         0.0060101809
      6   4   7   9         0.0060101809
      6   6   6  17        -0.0060030660
      6   6  17   6        -0.0060030660
      4   5   2   0        -0.0060025390
      5   4   0   2        -0.0060025390
      2   4  18   0         0.0060017030
      4   2   0  18         0.0060017030
      5   6   0   3        -0.0059926197
      6   5   3   0        -0.0059926197
      4   7   0  20        -0.0059899657
      7   4  20   0        -0.0059899657
      5   6   1   4         0.0059872805
      6   5   4   1         0.0059872805
      4   7  18  12         0.0059776309
      7   4  12  18         0.0059776309
      5   5   5  22        -0.0059754111
      5   5  22   5        -0.0059754111
      3   4  19   0         0.0059695144
      4   3   0  19         0.0059695144
      4   7   7   6        -0.0059493250
      7   4   6   7        -0.0059493250
      5   6  13   0        -0.0059417541
      6   5   0  13        -0.0059417541
      4   4   1   1        -0.0059405453
      2   2  18  18        -0.0059342202
      7   7   3  12        -0.0059308484
      7   7  12   3        -0.0059308484
      3   4  15  16        -0.0059223469
      4   3  16  15        -0.0059223469
      3   6   4   5        -0.0059141775
      6   3   5   4        -0.0059141775
      6   6  13  13        -0.0059115055
      3   6  13   9         0.0059074027
      6   3   9  13         0.0059074027
      3   3  11  11        -0.0058959227
      4   5  18  21         0.0058953530
      5   4  21  18         0.0058953530
      5   5   0  15         0.0058891208
      5   5  15   0         0.0058891208
      4   6  11  16         0.0058810104
      6   4  16  11         0.0058810104
      7   7   7   7        -0.0058767510
      3   7  12  20         0.0058743997
      7   3  20  12         0.0058743997
      4   5   3   9        -0.0058703100
      5   4   9   3        -0.0058703100
      4   7  18  19         0.0058538552
      7   4  19  18         0.0058538552
      3   7  14  10        -0.0058535285
      7   3  10  14        -0.0058535285
      2   6   4   1        -0.0058484239
      6   2   1   4        -0.0058484239
      4   7  15  20         0.0058479488
      7   4  20  15         0.0058479488
      2   6   1   4        -0.0058437224
      6   2   4   1        -0.0058437224
      7   7  20  20        -0.0058289334
      3   6   6   1        -0.0058245956
      6   3   1   6        -0.0058245956
      3   4   4   3        -0.0058184307
      4   3   3   4        -0.0058184307
      4   6  16  11         0.0058037305
      6   4  11  16         0.0058037305
      2   7   3  10        -0.0058017082
      7   2  10   3        -0.0058017082
      2   2  20  20        -0.0057908254
      2   4   2   4        -0.0057904596
      4   2   4   2        -0.0057904596
      7   7   8   8        -0.0057852254
      2   6   4  13        -0.0057753711
      6   2  13   4        -0.0057753711
      6   7   4  10        -0.0057611811
      7   6  10   4        -0.0057611811
      4   4  13  13        -0.0057458479
      5   5  13  13        -0.0057343530
      2   7  11   6        -0.0057337485
      7   2   6  11        -0.0057337485
      2   3  13   5        -0.0057304186
      3   2   5  13        -0.0057304186
      3   6   2   7        -0.0057095669
      6   3   7   2        -0.0057095669
      3   3   3  12         0.0057026588
      3   3  12   3         0.0057026588
      2   7  16   0        -0.0057023668
      7   2   0  16        -0.0057023668
      2   3   3   2        -0.0057019452
      3   2   2   3        -0.0057019452
      5   7  13   0        -0.0056974075
      7   5   0  13        -0.0056974075
      3   6   2  10        -0.0056910070
      6   3  10   2        -0.0056910070
      3   3  20  20        -0.0056846781
      3   5  12  14        -0.0056715593
      5   3  14  12        -0.0056715593
      6   7  17  20         0.0056566171
      7   6  20  17         0.0056566171
      3   4   4   1        -0.0056422465
      4   3   1   4        -0.0056422465
      4   6   8   7        -0.0056307213
      6   4   7   8        -0.0056307213
      3   4   2  24        -0.0056281606
      4   3  24   2        -0.0056281606
      6   6   0   7        -0.0056172532
      6   6   7   0        -0.0056172532
      5   6  11  17        -0.0056106089
      6   5  17  11        -0.0056106089
      2   2  17  17        -0.0056087244
      3   3   5  14        -0.0056050021
      3   3  14   5        -0.0056050021
      5   7  10  12        -0.0055921589
      7   5  12  10        -0.0055921589
      2   6   1   0        -0.0055772000
      6   2   0   1        -0.0055772000
      3   6   2   4        -0.0055709561
      6   3   4   2        -0.0055709561
      4   7   3   5         0.0055662415
      7   4   5   3         0.0055662415
      3   6   6  13        -0.0055435081
      6   3  13   6        -0.0055435081
      2   3   6  10        -0.0055431920
      3   2  10   6        -0.0055431920
      3   4   2   6        -0.0055343827
      4   3   6   2        -0.0055343827
      4   7   4   6        -0.0055336615
      7   4   6   4        -0.0055336615
      2   3   2  13        -0.0055283651
      3   2  13   2        -0.0055283651
      3   3  22  22        -0.0055174440
      4   4   9  17         0.0054956532
      4   4  17   9         0.0054956532
      2   3  18  19        -0.0054941480
      3   2  19  18        -0.0054941480
      3   5   0   9         0.0054859448
      5   3   9   0         0.0054859448
      6   6  12  12        -0.0054820294
      2   4   1   6        -0.0054774052
      4   2   6   1        -0.0054774052
      3   5   2  16         0.0054699973
      5   3  16   2         0.0054699973
      3   5  17   0        -0.0054562777
      5   3   0  17        -0.0054562777
      3   6  17  16        -0.0054334389
      6   3  16  17        -0.0054334389
      3   7   1   6        -0.0054325685
      7   3   6   1        -0.0054325685
      4   4  12  12        -0.0054181361
      6   6  23  23        -0.0054149142
      3   5   8   0         0.0054143832
      5   3   0   8         0.0054143832
      3   4   9   5         0.0054139999
      4   3   5   9         0.0054139999
      2   4   9   1         0.0054041724
      4   2   1   9         0.0054041724
      3   6   4  14        -0.0053977177
      6   3  14   4        -0.0053977177
      2   5   2   2         0.0053961568
      5   2   2   2         0.0053961568
      6   6  24  24        -0.0053945846
      6   6   6   8        -0.0053696791
      6   6   8   6        -0.0053696791
      5   7   9   5         0.0053669791
      7   5   5   9         0.0053669791
      4   7   8   0        -0.0053668652
      7   4   0   8        -0.0053668652
      5   5  16  16        -0.0053640942
      6   7   2  11        -0.0053625340
      7   6  11   2        -0.0053625340
      3   5  10  20         0.0053613002
      5   3  20  10         0.0053613002
      5   6   3   4         0.0053529315
      6   5   4   3         0.0053529315
      2   6  12   4        -0.0053473306
      6   2   4  12        -0.0053473306
      3   7  13   6        -0.0053404637
      7   3   6  13        -0.0053404637
      7   7   0  28        -0.0053032617
      7   7  28   0        -0.0053032617
      5   7   4  12         0.0052997893
      7   5  12   4         0.0052997893
      7   7  26  26        -0.0052983634
      3   3   0  21         0.0052977489
      3   3  21   0         0.0052977489
      5   7  22  20        -0.0052938601
      7   5  20  22        -0.0052938601
      2   3   2   1        -0.0052930944
      3   2   1   2        -0.0052930944
      3   6   5   7        -0.0052925020
      6   3   7   5        -0.0052925020
      2   6   4  12        -0.0052820934
      6   2  12   4        -0.0052820934
      5   5  27  27        -0.0052728930
      3   6  12  17        -0.0052683185
      6   3  17  12        -0.0052683185
      3   6  14   4        -0.0052676451
      6   3   4  14        -0.0052676451
      7   7   8   9         0.0052603933
      7   7   9   8         0.0052603933
      2   6  12   0        -0.0052594848
      6   2   0  12        -0.0052594848
      7   7   3  16        -0.0052521816
      7   7  16   3        -0.0052521816
      4   6  15   6        -0.0052436975
      6   4   6  15        -0.0052436975
      3   7  10  14        -0.0052390470
      7   3  14  10        -0.0052390470
      2   3  14   3        -0.0052345644
      3   2   3  14        -0.0052345644
      2   3   3  14        -0.0052321014
      3   2  14   3        -0.0052321014
      5   5   3  16        -0.0052316456
      5   5  16   3        -0.0052316456
      4   4  24  24        -0.0052127696
      2   3   9   0        -0.0052041953
      3   2   0   9        -0.0052041953
      3   7  10  26         0.0051927622
      7   3  26  10         0.0051927622
      3   3   3  13        -0.0051920447
      3   3  13   3        -0.0051920447
      3   6  12  24         0.0051916323
      6   3  24  12         0.0051916323
      5   7  20  26        -0.0051847581
      7   5  26  20        -0.0051847581
      5   7  23   0        -0.0051827100
      7   5   0  23        -0.0051827100
      2   7  14   9        -0.0051796919
      7   2   9  14        -0.0051796919
      2   6  13   7        -0.0051675580
      6   2   7  13        -0.0051675580
      4   5  15  22         0.0051668701
      5   4  22  15         0.0051668701
      4   6   7   9         0.0051573956
      6   4   9   7         0.0051573956
      3   6  14  15        -0.0051559640
      6   3  15  14        -0.0051559640
      3   4  12  15        -0.0051395930
      4   3  15  12        -0.0051395930
      3   7   0  22        -0.0051337047
      7   3  22   0        -0.0051337047
      4   7   3  14         0.0051309270
      7   4  14   3         0.0051309270
      5   6  16  15         0.0051262859
      6   5  15  16         0.0051262859
      2   3  13   2        -0.0051171873
      3   2   2  13        -0.0051171873
      2   2   5   5        -0.0051094314
      4   6   2  13        -0.0051022050
      6   4  13   2        -0.0051022050
      6   6  22  22        -0.0050975185
      3   7  10   5        -0.0050920222
      7   3   5  10        -0.0050920222
      3   3   6   6        -0.0050861944
      4   6   2  16        -0.0050819887
      6   4  16   2        -0.0050819887
      2   3   0  17         0.0050817635
      3   2  17   0         0.0050817635
      3   6   3  24        -0.0050799507
      6   3  24   3        -0.0050799507
      4   4  22  22        -0.0050722842
      6   6   3  13        -0.0050678451
      6   6  13   3        -0.0050678451
      4   4  23  23        -0.0050636649
      2   4   9  13         0.0050524555
      4   2  13   9         0.0050524555
      4   6  10   6        -0.0050471835
      6   4   6  10        -0.0050471835
      2   5   3   3         0.0050414527
      5   2   3   3         0.0050414527
      4   7  17   0        -0.0050353649
      7   4   0  17        -0.0050353649
      5   7   5   8        -0.0050313765
      7   5   8   5        -0.0050313765
      3   4  14  17        -0.0050232461
      4   3  17  14        -0.0050232461
      3   6  20  19         0.0050224946
      6   3  19  20         0.0050224946
      3   5  16   2         0.0050145072
      5   3   2  16         0.0050145072
      5   5  11  22         0.0050109388
      5   5  22  11         0.0050109388
      5   6  22  17         0.0050072728
      6   5  17  22         0.0050072728
      2   3  19  18        -0.0050066733
      3   2  18  19        -0.0050066733
      4   6   0   6         0.0049998604
      6   4   6   0         0.0049998604
      3   4   3   7        -0.0049986726
      4   3   7   3        -0.0049986726
      6   6   5   5        -0.0049954226
      3   6  10  18         0.0049940718
      6   3  18  10         0.0049940718
      6   7  18  11        -0.0049930696
      7   6  11  18        -0.0049930696
      4   5  11  15        -0.0049895331
      5   4  15  11        -0.0049895331
      2   5   0   4         0.0049878912
      5   2   4   0         0.0049878912
      6   6  25  25        -0.0049872752
      2   5   5  11         0.0049867852
      5   2  11   5         0.0049867852
      3   4   9   2         0.0049809074
      4   3   2   9         0.0049809074
      2   2   2   2        -0.0049785912
      6   7   3  19        -0.0049668743
      7   6  19   3        -0.0049668743
      2   5   4  15        -0.0049551006
      5   2  15   4        -0.0049551006
      7   7   1  13        -0.0049449157
      7   7  13   1        -0.0049449157
      3   6  22   4        -0.0049427265
      6   3   4  22        -0.0049427265
      3   3  21  21        -0.0049366740
      5   5   1  13        -0.0049361982
      5   5  13   1        -0.0049361982
      3   3  24  24        -0.0049216670
      2   2  22  22        -0.0049143764
      4   7   2   3         0.0049042225
      7   4   3   2         0.0049042225
      3   7   9  13        -0.0048906206
      7   3  13   9        -0.0048906206
      4   6   0   9        -0.0048904837
      6   4   9   0        -0.0048904837
      5   6   2  24         0.0048858947
      6   5  24   2         0.0048858947
      2   5   6  20         0.0048811147
      5   2  20   6         0.0048811147
      2   6   1   7        -0.0048798747
      6   2   7   1        -0.0048798747
      2   5  21   0        -0.0048737254
      5   2   0  21        -0.0048737254
      4   4   8   8        -0.0048659086
      4   5   7   2         0.0048647681
      5   4   2   7         0.0048647681
      3   6  11   0        -0.0048643701
      6   3   0  11        -0.0048643701
      2   4  12  17        -0.0048621893
      4   2  17  12        -0.0048621893
      6   7  18  26        -0.0048599745
      7   6  26  18        -0.0048599745
      6   6  11  14         0.0048479576
      6   6  14  11         0.0048479576
      2   3   4   9         0.0048449916
      3   2   9   4         0.0048449916
      3   6   0  14         0.0048439118
      6   3  14   0         0.0048439118
      6   7  14  11        -0.0048410019
      7   6  11  14        -0.0048410019
      3   7  11  10        -0.0048347278
      7   3  10  11        -0.0048347278
      3   6   2  25         0.0048319039
      6   3  25   2         0.0048319039
      5   6   6   2         0.0048265046
      6   5   2   6         0.0048265046
      2   6  11   8        -0.0048210881
      6   2   8  11        -0.0048210881
      3   5   5   3         0.0048152103
      5   3   3   5         0.0048152103
      5   7   9   2         0.0048014071
      7   5   2   9         0.0048014071
      3   6  15  11         0.0047987553
      6   3  11  15         0.0047987553
      3   5   9  21        -0.0047971572
      5   3  21   9        -0.0047971572
      4   5  17  16         0.0047913374
      5   4  16  17         0.0047913374
      4   6  13   2        -0.0047780066
      6   4   2  13        -0.0047780066
      5   6   0  19        -0.0047667640
      6   5  19   0        -0.0047667640
      2   2  21  21        -0.0047656206
      2   5  14   5         0.0047466123
      5   2   5  14         0.0047466123
      2   3  14  16        -0.0047435765
      3   2  16  14        -0.0047435765
      3   6  12   8         0.0047389985
      6   3   8  12         0.0047389985
      3   4  12   7         0.0047366947
      4   3   7  12         0.0047366947
      7   7  10  15        -0.0047313279
      7   7  15  10        -0.0047313279
      4   7   0   6        -0.0047214362
      7   4   6   0        -0.0047214362
      2   6  19   0         0.0047141877
      6   2   0  19         0.0047141877
      5   6  22   6         0.0047014836
      6   5   6  22         0.0047014836
      3   4   9  18         0.0047005551
      4   3  18   9         0.0047005551
      3   3   1   3        -0.0046997097
      3   3   3   1        -0.0046997097
      4   5  18   4        -0.0046936034
      5   4   4  18        -0.0046936034
      2   7   0  27         0.0046925778
      7   2  27   0         0.0046925778
      3   6  11   7        -0.0046875982
      6   3   7  11        -0.0046875982
      3   5  20   0         0.0046867890
      5   3   0  20         0.0046867890
      4   7  18   1         0.0046800945
      7   4   1  18         0.0046800945
      2   6  10  19         0.0046739640
      6   2  19  10         0.0046739640
      6   6   1  13        -0.0046588070
      6   6  13   1        -0.0046588070
      3   3  25  25        -0.0046585763
      4   4   5   5        -0.0046544274
      4   5  24  12        -0.0046503523
      5   4  12  24        -0.0046503523
      3   7   5   4         0.0046449068
      7   3   4   5         0.0046449068
      1   1  42  42        -0.0046429353
      5   6   0  16        -0.0046408840
      6   5  16   0        -0.0046408840
      1   1  43  43        -0.0046404697
      0   1  42  43        -0.0046396225
      1   0  43  42        -0.0046396225
      0   0  42  42        -0.0046395609
      0   1  43  42        -0.0046395592
      1   0  42  43        -0.0046395592
      0   0  43  43        -0.0046371733
      2   5  14  14         0.0046336233
      5   2  14  14         0.0046336233
      4   6  20   4        -0.0046310974
      6   4   4  20        -0.0046310974
      7   7   0  25        -0.0046204263
      7   7  25   0        -0.0046204263
      3   7   2   7         0.0046124677
      7   3   7   2         0.0046124677
      4   6   5   1        -0.0046122065
      6   4   1   5        -0.0046122065
      5   6   5   8         0.0046111059
      6   5   8   5         0.0046111059
      4   7  17   4         0.0046109983
      7   4   4  17         0.0046109983
      2   7  10  23        -0.0046084440
      7   2  23  10        -0.0046084440
      2   5   4  21         0.0046046379
      5   2  21   4         0.0046046379
      2   7   6  18         0.0045969176
      7   2  18   6         0.0045969176
      2   6   0  23        -0.0045847495
      6   2  23   0        -0.0045847495
      4   6   1   5        -0.0045759571
      6   4   5   1        -0.0045759571
      2   5  12  35        -0.0045721685
      5   2  35  12        -0.0045721685
      2   3  16  14        -0.0045710773
[...]
      4   1   6  42         0.0000013240
      0   3  35  18         0.0000013141
      3   0  18  35         0.0000013141
      1   6  15  14        -0.0000013091
      6   1  14  15        -0.0000013091
      2   7  24  42         0.0000013057
      7   2  42  24         0.0000013057
      1   6  28  22         0.0000012940
      6   1  22  28         0.0000012940
      1   6  30  28         0.0000012876
      6   1  28  30         0.0000012876
      2   3  18  43        -0.0000012796
      3   2  43  18        -0.0000012796
      0   4  43  17         0.0000012736
      4   0  17  43         0.0000012736
      6   7  43   1         0.0000012689
      7   6   1  43         0.0000012689
      2   6  42  29         0.0000012674
      6   2  29  42         0.0000012674
      4   5  43  20         0.0000012353
      5   4  20  43         0.0000012353
      4   7  42   3        -0.0000012326
      7   4   3  42        -0.0000012326
      0   7  24  34         0.0000012238
      7   0  34  24         0.0000012238
      0   6  16   7        -0.0000012234
      6   0   7  16        -0.0000012234
      0   6  39  14        -0.0000012208
      6   0  14  39        -0.0000012208
      1   7  12   9        -0.0000012203
      7   1   9  12        -0.0000012203
      0   2  18  34         0.0000012184
      2   0  34  18         0.0000012184
      1   1   6   9         0.0000012117
      1   1   9   6         0.0000012117
      3   7  43   6        -0.0000012062
      7   3   6  43        -0.0000012062
      1   5  30   3        -0.0000011991
      5   1   3  30        -0.0000011991
      1   5  30  16        -0.0000011960
      5   1  16  30        -0.0000011960
      3   3  30  42        -0.0000011929
      3   3  42  30        -0.0000011929
      0   0  18  37         0.0000011844
      0   0  37  18         0.0000011844
      0   2  30   2         0.0000011835
      2   0   2  30         0.0000011835
      1   7  43  39         0.0000011647
      7   1  39  43         0.0000011647
      0   6  29  11         0.0000011546
      6   0  11  29         0.0000011546
      1   5  31  37         0.0000011494
      5   1  37  31         0.0000011494
      0   0  18  18        -0.0000011346
      1   4  43  25         0.0000011324
      4   1  25  43         0.0000011324
      1   5  30  36         0.0000011087
      5   1  36  30         0.0000011087
      1   4   1  10        -0.0000011066
      4   1  10   1        -0.0000011066
      5   6  40   6         0.0000011053
      6   5   6  40         0.0000011053
      0   6   1  21         0.0000010796
      6   0  21   1         0.0000010796
      3   5  42   3        -0.0000010769
      5   3   3  42        -0.0000010769
      1   7  32  22        -0.0000010751
      7   1  22  32        -0.0000010751
      3   5  43  18        -0.0000010688
      5   3  18  43        -0.0000010688
      2   3  42  19        -0.0000010687
      3   2  19  42        -0.0000010687
      0   6  43  10         0.0000010545
      6   0  10  43         0.0000010545
      0   5  14  18         0.0000010364
      5   0  18  14         0.0000010364
      1   3  31  36         0.0000010344
      3   1  36  31         0.0000010344
      1   4  29   5         0.0000010336
      4   1   5  29         0.0000010336
      1   4  42   9        -0.0000010256
      4   1   9  42        -0.0000010256
      1   1  19  19        -0.0000010231
      0   3  21  17         0.0000010203
      3   0  17  21         0.0000010203
      3   5  39  25        -0.0000010195
      5   3  25  39        -0.0000010195
      1   5  19  42         0.0000010146
      5   1  42  19         0.0000010146
      3   3  26  42         0.0000010108
      3   3  42  26         0.0000010108
      0   6  42   6        -0.0000010033
      6   0   6  42        -0.0000010033
      2   4  32  42        -0.0000010020
      4   2  42  32        -0.0000010020
      1   5   3  18        -0.0000009991
      5   1  18   3        -0.0000009991
      0   0  19  19        -0.0000009958
      6   7  27  43         0.0000009958
      7   6  43  27         0.0000009958
      3   5  19  40         0.0000009951
      5   3  40  19         0.0000009951
      1   3  36  36         0.0000009937
      3   1  36  36         0.0000009937
      0   7  21   3         0.0000009871
      7   0   3  21         0.0000009871
      0   7  29  18         0.0000009765
      7   0  18  29         0.0000009765
      1   7   9  35        -0.0000009696
      7   1  35   9        -0.0000009696
      1   7  43   6         0.0000009652
      7   1   6  43         0.0000009652
      0   4  43   6         0.0000009562
      4   0   6  43         0.0000009562
      0   6  43  15         0.0000009491
      6   0  15  43         0.0000009491
      2   5  43  41         0.0000009415
      5   2  41  43         0.0000009415
      0   4  43   9        -0.0000009412
      4   0   9  43        -0.0000009412
      1   4  29  11         0.0000009382
      4   1  11  29         0.0000009382
      1   2  41  18         0.0000009277
      2   1  18  41         0.0000009277
      0   5  19  16         0.0000008995
      5   0  16  19         0.0000008995
      1   1  18  18        -0.0000008939
      0   3  25   6         0.0000008915
      3   0   6  25         0.0000008915
      0   6  43  28        -0.0000008896
      6   0  28  43        -0.0000008896
      1   3  18  37        -0.0000008871
      3   1  37  18        -0.0000008871
      2   7  42   8        -0.0000008794
      7   2   8  42        -0.0000008794
      2   6  43   4         0.0000008654
      6   2   4  43         0.0000008654
      0   4  43  29         0.0000008642
      4   0  29  43         0.0000008642
      1   5  43  30         0.0000008545
      5   1  30  43         0.0000008545
      0   3   1  26        -0.0000008381
      3   0  26   1        -0.0000008381
      0   7  11   8        -0.0000008318
      7   0   8  11        -0.0000008318
      0   7  35   4        -0.0000008316
      7   0   4  35        -0.0000008316
      0   6  42   9        -0.0000008300
      6   0   9  42        -0.0000008300
      1   5  18  16         0.0000008175
      5   1  16  18         0.0000008175
      0   7  43  10         0.0000008167
      7   0  10  43         0.0000008167
      0   4  42  28        -0.0000008161
      4   0  28  42        -0.0000008161
      3   5  31  42         0.0000008155
      5   3  42  31         0.0000008155
      0   1   5  19         0.0000008089
      1   0  19   5         0.0000008089
      5   7  42  24        -0.0000007994
      7   5  24  42        -0.0000007994
      0   2  35  19        -0.0000007967
      2   0  19  35        -0.0000007967
      1   2   9  28         0.0000007819
      2   1  28   9         0.0000007819
      5   6  42   6        -0.0000007803
      6   5   6  42        -0.0000007803
      0   4  42   7        -0.0000007782
      4   0   7  42        -0.0000007782
      1   7  42  25        -0.0000007737
      7   1  25  42        -0.0000007737
      2   4  42  10         0.0000007632
      4   2  10  42         0.0000007632
      1   7  43  24         0.0000007607
      7   1  24  43         0.0000007607
      6   7  42  11         0.0000007606
      7   6  11  42         0.0000007606
      3   5  18  43        -0.0000007553
      5   3  43  18        -0.0000007553
      2   2  31  43         0.0000007544
      2   2  43  31         0.0000007544
      1   5   2  16         0.0000007509
      5   1  16   2         0.0000007509
      1   4  43   7        -0.0000007480
      4   1   7  43        -0.0000007480
      0   2  28   4        -0.0000007375
      2   0   4  28        -0.0000007375
      1   6  30  21         0.0000007288
      6   1  21  30         0.0000007288
      0   7  42   8        -0.0000007268
      7   0   8  42        -0.0000007268
      0   4  42   4         0.0000007263
      4   0   4  42         0.0000007263
      0   5  26  34        -0.0000007172
      5   0  34  26        -0.0000007172
      0   7  13  21        -0.0000007092
      7   0  21  13        -0.0000007092
      1   4   2   8        -0.0000007075
      4   1   8   2        -0.0000007075
      2   7  43   7        -0.0000007024
      7   2   7  43        -0.0000007024
      0   6  43  21        -0.0000007010
      6   0  21  43        -0.0000007010
      1   7  42  28        -0.0000006817
      7   1  28  42        -0.0000006817
      4   5  42   0        -0.0000006705
      5   4   0  42        -0.0000006705
      3   3  31  43         0.0000006692
      3   3  43  31         0.0000006692
      0   6  26  29        -0.0000006650
      6   0  29  26        -0.0000006650
      1   5  18  12        -0.0000006613
      5   1  12  18        -0.0000006613
      6   7  42   2         0.0000006527
      7   6   2  42         0.0000006527
      1   5  43  37        -0.0000006524
      5   1  37  43        -0.0000006524
      0   1  26  31         0.0000006486
      1   0  31  26         0.0000006486
      0   6   2   8        -0.0000006407
      6   0   8   2        -0.0000006407
      1   7  39   3        -0.0000006383
      7   1   3  39        -0.0000006383
      6   7   2  42         0.0000006314
      7   6  42   2         0.0000006314
      0   3  16  30        -0.0000006306
      3   0  30  16        -0.0000006306
      1   5  18  43        -0.0000006252
      5   1  43  18        -0.0000006252
      4   7  34  43         0.0000006238
      7   4  43  34         0.0000006238
      0   5  43  16         0.0000006204
      5   0  16  43         0.0000006204
      1   5  30   1         0.0000006117
      5   1   1  30         0.0000006117
      0   2   3  19        -0.0000006094
      2   0  19   3        -0.0000006094
      2   3  30  43        -0.0000006014
      3   2  43  30        -0.0000006014
      0   6  43   7        -0.0000005974
      6   0   7  43        -0.0000005974
      0   4  28  34         0.0000005971
      4   0  34  28         0.0000005971
      1   6  30   7         0.0000005919
      6   1   7  30         0.0000005919
      4   6  12  42        -0.0000005856
      6   4  42  12        -0.0000005856
      0   1  16  18        -0.0000005804
      1   0  18  16        -0.0000005804
      0   5  18  42        -0.0000005778
      5   0  42  18        -0.0000005778
      0   4  11   4        -0.0000005681
      4   0   4  11        -0.0000005681
      0   0  16  19        -0.0000005506
      0   0  19  16        -0.0000005506
      0   5  19  43         0.0000005490
      5   0  43  19         0.0000005490
      1   5  30  43         0.0000005480
      5   1  43  30         0.0000005480
      0   4  42  10         0.0000005461
      4   0  10  42         0.0000005461
      1   6  25  37        -0.0000005435
      6   1  37  25        -0.0000005435
      3   7  42  38         0.0000005413
      7   3  38  42         0.0000005413
      0   1  18  16        -0.0000005399
      1   0  16  18        -0.0000005399
      1   3   1  19        -0.0000005395
      3   1  19   1        -0.0000005395
      1   4  37  20         0.0000005351
      4   1  20  37         0.0000005351
      0   4  43   8        -0.0000005346
      4   0   8  43        -0.0000005346
      1   2  11  31        -0.0000005283
      2   1  31  11        -0.0000005283
      1   7  28  37        -0.0000005234
      7   1  37  28        -0.0000005234
      6   7  42  37        -0.0000005223
      7   6  37  42        -0.0000005223
      2   5  43   1        -0.0000005166
      5   2   1  43        -0.0000005166
      1   7  18  25        -0.0000005147
      7   1  25  18        -0.0000005147
      1   5  42  19        -0.0000004961
      5   1  19  42        -0.0000004961
      0   6  26  39         0.0000004914
      6   0  39  26         0.0000004914
      0   6  30  17        -0.0000004907
      6   0  17  30        -0.0000004907
      0   2  11  34         0.0000004848
      2   0  34  11         0.0000004848
      0   6  10  16        -0.0000004819
      6   0  16  10        -0.0000004819
      1   3  22  18         0.0000004807
      3   1  18  22         0.0000004807
      4   5  25  42        -0.0000004798
      5   4  42  25        -0.0000004798
      1   3  30  11         0.0000004769
      3   1  11  30         0.0000004769
      1   7   4  34         0.0000004641
      7   1  34   4         0.0000004641
      4   6  40  27        -0.0000004546
      6   4  27  40        -0.0000004546
      0   3   2  19        -0.0000004527
      3   0  19   2        -0.0000004527
      1   1  16  19        -0.0000004432
      1   1  19  16        -0.0000004432
      1   6  35  33        -0.0000004349
      6   1  33  35        -0.0000004349
      0   1  19   5         0.0000004338
      1   0   5  19         0.0000004338
      0   5  10  10         0.0000004202
      5   0  10  10         0.0000004202
      1   4  42  20        -0.0000004100
      4   1  20  42        -0.0000004100
      1   5  11  19        -0.0000003957
      5   1  19  11        -0.0000003957
      0   2   3  36        -0.0000003847
      2   0  36   3        -0.0000003847
      3   5  42  19        -0.0000003835
      5   3  19  42        -0.0000003835
      0   6  42  29         0.0000003745
      6   0  29  42         0.0000003745
      1   4  19  15         0.0000003692
      4   1  15  19         0.0000003692
      1   3  12  19         0.0000003685
      3   1  19  12         0.0000003685
      4   5   7  42         0.0000003669
      5   4  42   7         0.0000003669
      6   7  33  17         0.0000003640
      7   6  17  33         0.0000003640
      0   5  43  19        -0.0000003555
      5   0  19  43        -0.0000003555
      1   5  43  18        -0.0000003537
      5   1  18  43        -0.0000003537
      2   5  24  33        -0.0000003354
      5   2  33  24        -0.0000003354
      1   7  13  24         0.0000003350
      7   1  24  13         0.0000003350
      1   3  14  30        -0.0000003309
      3   1  30  14        -0.0000003309
      0   2  30  37        -0.0000003299
      2   0  37  30        -0.0000003299
      1   3  12  31        -0.0000003294
      3   1  31  12        -0.0000003294
      1   7  22   4         0.0000003148
      7   1   4  22         0.0000003148
      4   7  21  29         0.0000003117
      7   4  29  21         0.0000003117
      0   7  24  40         0.0000003099
      7   0  40  24         0.0000003099
      5   6  42  24        -0.0000003047
      6   5  24  42        -0.0000003047
      0   5  30  18         0.0000003016
      5   0  18  30         0.0000003016
      7   7  36  43        -0.0000002927
      7   7  43  36        -0.0000002927
      0   5  42  18         0.0000002885
      5   0  18  42         0.0000002885
      5   7  43   4         0.0000002819
      7   5   4  43         0.0000002819
      1   7  18  28        -0.0000002794
      7   1  28  18        -0.0000002794
      0   5  18   5        -0.0000002710
      5   0   5  18        -0.0000002710
      0   6  31   4        -0.0000002649
      6   0   4  31        -0.0000002649
      0   3  14  23        -0.0000002621
      3   0  23  14        -0.0000002621
      1   6  18  38         0.0000002590
      6   1  38  18         0.0000002590
      0   6   9   2         0.0000002563
      6   0   2   9         0.0000002563
      0   4  10   2         0.0000002539
      4   0   2  10         0.0000002539
      0   4  15   2        -0.0000002475
      4   0   2  15        -0.0000002475
      1   3  11  30        -0.0000002414
      3   1  30  11        -0.0000002414
      0   7  39  37         0.0000002328
      7   0  37  39         0.0000002328
      1   6  25  14        -0.0000002325
      6   1  14  25        -0.0000002325
      4   4  30  42         0.0000002274
      4   4  42  30         0.0000002274
      0   3  16  18        -0.0000002269
      3   0  18  16        -0.0000002269
      0   5  30  42         0.0000002070
      5   0  42  30         0.0000002070
      7   7  37  40         0.0000001971
      7   7  40  37         0.0000001971
      0   1  16  30        -0.0000001960
      1   0  30  16        -0.0000001960
      1   2  17  38        -0.0000001952
      2   1  38  17        -0.0000001952
      0   7  43   7        -0.0000001865
      7   0   7  43        -0.0000001865
      2   3  43  18         0.0000001730
      3   2  18  43         0.0000001730
      2   3  19  42         0.0000001655
      3   2  42  19         0.0000001655
      1   4  43  10        -0.0000001606
      4   1  10  43        -0.0000001606
      1   5  40  19         0.0000001585
      5   1  19  40         0.0000001585
      0   7  24  37         0.0000001582
      7   0  37  24         0.0000001582
      1   4   2  39         0.0000001569
      4   1  39   2         0.0000001569
      1   3   3  35        -0.0000001560
      3   1  35   3        -0.0000001560
      4   7  42  27         0.0000001530
      7   4  27  42         0.0000001530
      0   4  42  21         0.0000001513
      4   0  21  42         0.0000001513
      0   4  35  17         0.0000001511
      4   0  17  35         0.0000001511
      1   5  19  37         0.0000001478
      5   1  37  19         0.0000001478
      1   4  38   3        -0.0000001398
      4   1   3  38        -0.0000001398
      1   7  13  39        -0.0000001338
      7   1  39  13        -0.0000001338
      3   6  43  39        -0.0000001323
      6   3  39  43        -0.0000001323
      0   3  15  24         0.0000001314
      3   0  24  15         0.0000001314
      0   4  31  20         0.0000001287
      4   0  20  31         0.0000001287
      0   4  19   8        -0.0000001158
      4   0   8  19        -0.0000001158
      0   6  42   8         0.0000001048
      6   0   8  42         0.0000001048
      0   1  30  16         0.0000000968
      1   0  16  30         0.0000000968
      0   7  22   9         0.0000000932
      7   0   9  22         0.0000000932
      7   7  34  42         0.0000000900
      7   7  42  34         0.0000000900
      3   5  19  42        -0.0000000867
      5   3  42  19        -0.0000000867
      3   7  42  25         0.0000000859
      7   3  25  42         0.0000000859
      0   4  43  20         0.0000000857
      4   0  20  43         0.0000000857
      0   7  43  15         0.0000000752
      7   0  15  43         0.0000000752
      4   7  43  37         0.0000000742
      7   4  37  43         0.0000000742
      0   7   1   7         0.0000000337
      7   0   7   1         0.0000000337
      1   5  13  30         0.0000000325
      5   1  30  13         0.0000000325
      1   6  42   4         0.0000000312
      6   1   4  42         0.0000000312
      2   5  42  37         0.0000000278
      5   2  37  42         0.0000000278
      1   6  30  25        -0.0000000254
      6   1  25  30        -0.0000000254

    SCF energy       (wfn)                    =  -77.951019509598240
    Reference energy (file100)                =  -77.951019509598382

    Opposite-spin MP2 correlation energy      =   -0.249496871138098
    Same-spin MP2 correlation energy          =   -0.061351973256701
    MP2 correlation energy                    =   -0.310848844394799
      * MP2 total energy                      =  -78.261868353993179

    Opposite-spin CCSD correlation energy     =   -0.292288575740854
    Same-spin CCSD correlation energy         =   -0.054676893295299
    CCSD correlation energy                   =   -0.346965469036153
      * CCSD total energy                     =  -78.297984978634531


*** tstop() called on Berts-MacBook-Pro.local at Wed Dec  6 22:12:26 2017
Module time:
	user time   =     148.44 seconds =       2.47 minutes
	system time =       5.97 seconds =       0.10 minutes
	total time  =        155 seconds =       2.58 minutes
Total time:
	user time   =     203.88 seconds =       3.40 minutes
	system time =       7.66 seconds =       0.13 minutes
	total time  =        212 seconds =       3.53 minutes

*** Psi4 exiting successfully. Buy a developer a beer!
