
    -----------------------------------------------------------------------
          Psi4: An Open-Source Ab Initio Electronic Structure Package
                               Psi4 1.1 release

                         Git: Rev {HEAD} add49b9 


    R. M. Parrish, L. A. Burns, D. G. A. Smith, A. C. Simmonett,
    A. E. DePrince III, E. G. Hohenstein, U. Bozkaya, A. Yu. Sokolov,
    R. Di Remigio, R. M. Richard, J. F. Gonthier, A. M. James,
    H. R. McAlexander, A. Kumar, M. Saitow, X. Wang, B. P. Pritchard,
    P. Verma, H. F. Schaefer III, K. Patkowski, R. A. King, E. F. Valeev,
    F. A. Evangelista, J. M. Turney, T. D. Crawford, and C. D. Sherrill,
    J. Chem. Theory Comput. in press (2017).
    (doi: 10.1021/acs.jctc.7b00174)

    -----------------------------------------------------------------------


    Psi4 started on: Wednesday, 06 December 2017 10:41PM

    Process ID:  12119
    PSIDATADIR: /anaconda3/share/psi4
    Memory:     500.0 MiB
    Threads:    1
    
  ==> Input File <==

--------------------------------------------------------------------------
"""This is a template for psi4 input format."""
import numpy
import sys

from openfermion.config import *
from openfermion.ops._interaction_tensor import (one_body_basis_change,
                                              two_body_basis_change)
from openfermion.hamiltonians import MolecularData
from numpy import array

sys.path.append('/Users/wadejong/Desktop/Quantum-Computing/OpenFermion/OpenFermion-Psi4/openfermionpsi4')
from _psi4_conversion_functions import *

# Set number of threads in PSI4
set_num_threads(8)

# Set memory that job can use in megabytes.
memory 8000 mb

# Initialize molecular data.
_description = 'ethylene_1.88496'
if _description == 'None':
    _description = None
molecule = MolecularData([['C', array([ 0.      ,  0.      ,  0.673055])], ['C', array([ 0.      ,  0.      , -0.673055])], ['H', array([ 0.      ,  0.934981,  1.246807])], ['H', array([ 0.      , -0.934981,  1.246807])], ['H', array([ 0.88921977,  0.28892502, -1.246807  ])], ['H', array([-0.88921977, -0.28892502, -1.246807  ])]],
                         'DZP',
                         1,
                         0,
                         _description,
                          filename='/Users/wadejong/Desktop/QCQCSiddiqi/8_Qubit_Simulation/data/H4-C2_DZP_singlet_ethylene_1.88496')

# Set molecular geometry and symmetry.
molecule mol {
C 0.0 0.0 0.673055
C 0.0 0.0 -0.673055
H 0.0 0.934981 1.246807
H 0.0 -0.934981 1.246807
H 0.889219772662159 0.28892501841768264 -1.246807
H -0.889219772662159 -0.28892501841768264 -1.246807
symmetry c1
}
mol.set_multiplicity(1)
mol.set_molecular_charge(0)

# Set reference and guess.
if molecule.multiplicity == 1:
    set reference rhf
    set guess sad
    set sad_frac_occ true
else:
    set reference rohf
    set guess sad
    set sad_frac_occ true

# Set global parameters of calculation.
set globals {
    basis DZP
    freeze_core false
    fail_on_maxiter true
    df_scf_guess false
    guess sad
    sad_frac_occ true
    opdm false
    tpdm false
    soscf true
    scf_type pk
    diis true
    maxiter 1e6
    num_amps_print 1e6
    r_convergence 1e-7
    d_convergence 1e-7
    e_convergence 1e-7
    ints_tolerance EQUALITY_TOLERANCE
    damping_percentage 0
}

# Run self-consistent field (SCF) calculation.
if True:
    try:

        hf_energy, hf_wavefunction = energy('scf', return_wfn=True)
        scf_wfn = hf_wavefunction
        if True:
            print('Hartree-Fock energy for {} ({} electrons) is {}.'.format(
                molecule.name, molecule.n_electrons, hf_energy))
    except:
        if True:
            print('WARNING: SCF calculation failed.')
        else:
            raise
    else:
        # Get orbitals and Fock matrix.
        molecule.hf_energy = hf_energy
        molecule.nuclear_repulsion = mol.nuclear_repulsion_energy()
        molecule.canonical_orbitals = numpy.asarray(hf_wavefunction.Ca())
        molecule.n_orbitals = molecule.canonical_orbitals.shape[0]
        molecule.n_qubits = 2 * molecule.n_orbitals
        molecule.orbital_energies = numpy.asarray(hf_wavefunction.epsilon_a())
        molecule.fock_matrix = numpy.asarray(hf_wavefunction.Fa())

        # Get integrals using MintsHelper.
        mints = MintsHelper(hf_wavefunction.basisset())
        molecule.one_body_integrals = one_body_basis_change(
            numpy.asarray(mints.ao_kinetic()), molecule.canonical_orbitals)
        molecule.one_body_integrals += one_body_basis_change(
            numpy.asarray(mints.ao_potential()), molecule.canonical_orbitals)
        two_body_integrals = numpy.asarray(mints.ao_eri())
        two_body_integrals.reshape((molecule.n_orbitals, molecule.n_orbitals,
                                    molecule.n_orbitals, molecule.n_orbitals))
        two_body_integrals = numpy.einsum('psqr', two_body_integrals)
        two_body_integrals = two_body_basis_change(
            two_body_integrals, molecule.canonical_orbitals)
        molecule.two_body_integrals = two_body_integrals
        molecule.save()


# Perform MP2 energy calculation if there are at least two electrons.
if True:
    try:
        assert molecule.n_electrons > 1
        mp2_energy = energy('mp2',ref_wfn=scf_wfn)
        if True:
            print('MP2 energy for {} ({} electrons) is {}.'.format(
                molecule.name, molecule.n_electrons, mp2_energy))
    except:
        if True:
            print('WARNING: MP2 calculation failed.')
        else:
            raise
    else:
        molecule.mp2_energy = mp2_energy
        molecule.save()


# Perform configuration interaction singles and doubles (CISD) calculation.
if True:
    set qc_module detci
    try:
        cisd_energy, cisd_wavefunction = energy('cisd', ref_wfn=scf_wfn, return_wfn=True)
        if True:
            print('CISD energy for {} ({} electrons) is {}.'.format(
                molecule.name, molecule.n_electrons, cisd_energy))
    except:
        if True:
            print('WARNING: CISD calculation failed.')
        else:
            raise
    else:
        # For the functions below, "a" and "b" refer to "up and "down" spins.
        molecule.cisd_energy = cisd_energy

        # Get 1-RDM from CISD calculation.
        """cisd_one_rdm_a = numpy.array(cisd_wavefunction.get_opdm(
            0, 0, 'A', True)).reshape(molecule.n_orbitals, molecule.n_orbitals)
        cisd_one_rdm_b = numpy.array(cisd_wavefunction.get_opdm(
            0, 0, 'B', True)).reshape(molecule.n_orbitals, molecule.n_orbitals)

        # Get 2-RDM from CISD calculation.
        cisd_two_rdm_aa = numpy.array(cisd_wavefunction.get_tpdm(
            'AA', False)).reshape(molecule.n_orbitals, molecule.n_orbitals,
                                  molecule.n_orbitals, molecule.n_orbitals)
        cisd_two_rdm_ab = numpy.array(cisd_wavefunction.get_tpdm(
            'AB', False)).reshape(molecule.n_orbitals, molecule.n_orbitals,
                                  molecule.n_orbitals, molecule.n_orbitals)
        cisd_two_rdm_bb = numpy.array(cisd_wavefunction.get_tpdm(
            'BB', False)).reshape(molecule.n_orbitals, molecule.n_orbitals,
                                  molecule.n_orbitals, molecule.n_orbitals)

        # Get overall RDMs.
        cisd_one_rdm, cisd_two_rdm = unpack_spatial_rdm(
            cisd_one_rdm_a, cisd_one_rdm_b, cisd_two_rdm_aa,
            cisd_two_rdm_ab, cisd_two_rdm_bb)

        # Store 1-RDM in molecule file, 2-RDM separately in other file.
        molecule.cisd_one_rdm = cisd_one_rdm
        molecule.cisd_two_rdm = cisd_two_rdm
        molecule.save()"""


# Perform exact diagonalization.
if False:
    set qc_module detci
    try:
        fci_energy, fci_wavefunction = energy('fci', ref_wfn=scf_wfn, return_wfn=True)
        if True:
            print('FCI energy for {} ({} electrons) is {}.'.format(
                molecule.name, molecule.n_electrons, fci_energy))
    except:
        if True:
            print('WARNING: FCI calculation failed.')
        else:
            raise
    else:
        # For the functions below, "a" and "b" refer to "up and "down" spins.
        molecule.fci_energy = fci_energy

        # Get 1-RDM from FCI calculation.
        """fci_one_rdm_a = numpy.array(fci_wavefunction.get_opdm(
            0, 0, 'A', True)).reshape(molecule.n_orbitals, molecule.n_orbitals)
        fci_one_rdm_b = numpy.array(fci_wavefunction.get_opdm(
            0, 0, 'B', True)).reshape(molecule.n_orbitals, molecule.n_orbitals)

        # Get 2-RDM from FCI calculation.
        fci_two_rdm_aa = numpy.array(fci_wavefunction.get_tpdm(
            'AA', False)).reshape(molecule.n_orbitals, molecule.n_orbitals,
                                  molecule.n_orbitals, molecule.n_orbitals)
        fci_two_rdm_ab = numpy.array(fci_wavefunction.get_tpdm(
            'AB', False)).reshape(molecule.n_orbitals, molecule.n_orbitals,
                                  molecule.n_orbitals, molecule.n_orbitals)
        fci_two_rdm_bb = numpy.array(fci_wavefunction.get_tpdm(
            'BB', False)).reshape(molecule.n_orbitals, molecule.n_orbitals,
                                  molecule.n_orbitals, molecule.n_orbitals)

        # Get overall RDMs.
        fci_one_rdm, fci_two_rdm = unpack_spatial_rdm(
            fci_one_rdm_a, fci_one_rdm_b,
            fci_two_rdm_aa, fci_two_rdm_ab, fci_two_rdm_bb)

        # Store 1-RDM in molecule file, 2-RDM separately in other file.
        molecule.fci_one_rdm = fci_one_rdm
        molecule.fci_two_rdm = fci_two_rdm
        molecule.save()"""


# Perform coupled cluster singles and doubles (CCSD) calculation.
if True:
    set qc_module ccenergy
    try:
        ccsd_energy = energy('ccsd',ref_wfn=scf_wfn)
        if True:
            print('CCSD energy for {} ({} electrons) is {}.'.format(
                molecule.name, molecule.n_electrons, ccsd_energy))
    except:
        if True:
            print('WARNING: CCSD calculation failed.')
        else:
            raise
    else:
        molecule.ccsd_energy = ccsd_energy

        # Merge CC amplitudes into molecule by parsing
        psi_filename = outfile_name()
        ccsd_amplitudes = parse_psi4_ccsd_amplitudes(
            2 * molecule.n_orbitals,
            molecule.get_n_alpha_electrons(),
            molecule.get_n_beta_electrons(),
            psi_filename)
        molecule.ccsd_amplitudes = ccsd_amplitudes
        molecule.save()
--------------------------------------------------------------------------
  Python driver attempted to set threads to 8.
  Psi4 was compiled without OpenMP, setting threads to 1.

  Memory set to   7.451 GiB by Python driver.

*** tstart() called on Berts-MacBook-Pro.local
*** at Wed Dec  6 22:41:50 2017

   => Loading Basis Set <=

    Name: DZP
    Role: ORBITAL
    Keyword: BASIS
    atoms 1-2 entry C          line    73 file /anaconda3/share/psi4/basis/dzp.gbs 
    atoms 3-6 entry H          line    16 file /anaconda3/share/psi4/basis/dzp.gbs 


         ---------------------------------------------------------
                                   SCF
            by Justin Turney, Rob Parrish, and Andy Simmonett
                              RHF Reference
                        1 Threads,   7629 MiB Core
         ---------------------------------------------------------

  ==> Geometry <==

    Molecular point group: c1
    Full point group: D2

    Geometry (in Angstrom), charge = 0, multiplicity = 1:

       Center              X                  Y                   Z               Mass       
    ------------   -----------------  -----------------  -----------------  -----------------
           C          0.000000000000     0.000000000000     0.673055000000    12.000000000000
           C          0.000000000000     0.000000000000    -0.673055000000    12.000000000000
           H         -0.549568042974     0.756415518418     1.246807000000     1.007825032070
           H          0.549568042974    -0.756415518418     1.246807000000     1.007825032070
           H          0.549568042974     0.756415518418    -1.246807000000     1.007825032070
           H         -0.549568042974    -0.756415518418    -1.246807000000     1.007825032070

  Running in c1 symmetry.

  Rotational constants: A =      4.78350  B =      0.91835  C =      0.86692 [cm^-1]
  Rotational constants: A = 143405.72603  B =  27531.49686  C =  25989.63362 [MHz]
  Nuclear repulsion =   32.994181569997536

  Charge       = 0
  Multiplicity = 1
  Electrons    = 16
  Nalpha       = 8
  Nbeta        = 8

  ==> Algorithm <==

  SCF Algorithm Type is PK.
  DIIS enabled.
  MOM disabled.
  Fractional occupation disabled.
  Guess Type is SAD.
  Energy threshold   = 1.00e-07
  Density threshold  = 1.00e-07
  Integral threshold = 0.00e+00

  ==> Primary Basis <==

  Basis Set: DZP
    Blend: DZP
    Number of shells: 26
    Number of basis function: 52
    Number of Cartesian functions: 52
    Spherical Harmonics?: false
    Max angular momentum: 2

  ==> Pre-Iterations <==

   -------------------------------------------------------
    Irrep   Nso     Nmo     Nalpha   Nbeta   Ndocc  Nsocc
   -------------------------------------------------------
     A         52      52       0       0       0       0
   -------------------------------------------------------
    Total      52      52       8       8       8       0
   -------------------------------------------------------

  ==> Integral Setup <==

  Using in-core PK algorithm.
   Calculation information:
      Number of atoms:                   6
      Number of AO shells:              26
      Number of primitives:             50
      Number of atomic orbitals:        52
      Number of basis functions:        52

      Integral cutoff                 1.00e-12
      Number of threads:                 1

  Performing in-core PK
  Using 1900262 doubles for integral storage.
  We computed 61769 shell quartets total.
  Whereas there are 61776 unique shell quartets.
  ==> DiskJK: Disk-Based J/K Matrices <==

    J tasked:                  Yes
    K tasked:                  Yes
    wK tasked:                  No
    Memory (MB):              5722
    Schwarz Cutoff:          1E-12

    OpenMP threads:              1
  Minimum eigenvalue in the overlap matrix is 9.1290144752E-03.
  Using Symmetric Orthogonalization.

  SCF Guess: Superposition of Atomic Densities via on-the-fly atomic UHF.

  ==> Iterations <==

                        Total Energy        Delta E     RMS |[F,P]|

   @RHF iter   0:   -69.16360110200807   -6.91636e+01   1.01492e-01 
   @RHF iter   1:   -74.16095245524296   -4.99735e+00   4.01440e-02 
   @RHF iter   2:   -77.03562612155898   -2.87467e+00   2.46995e-02 DIIS/DAMP
   @RHF iter   3:   -77.92451379762535   -8.88888e-01   2.45006e-03 DIIS/DAMP
   @RHF iter   4:   -77.93704407797752   -1.25303e-02   4.50815e-04 SOSCF, nmicro = 4/DAMP
   @RHF iter   5:   -77.93784161288957   -7.97535e-04   2.38594e-06 SOSCF, nmicro = 4/DAMP
   @RHF iter   6:   -77.93784162830104   -1.54115e-08   5.95282e-09 SOSCF, conv/DAMP

  ==> Post-Iterations <==

    Orbital Energies (a.u.)
    -----------------------

    Doubly Occupied:                                                      

       1A    -11.249455     2A    -11.247963     3A     -1.031435  
       4A     -0.790850     5A     -0.611551     6A     -0.586683  
       7A     -0.565385     8A     -0.287940  

    Virtual:                                                              

       9A      0.072812    10A      0.257057    11A      0.321519  
      12A      0.327010    13A      0.411139    14A      0.411930  
      15A      0.447771    16A      0.453969    17A      0.471888  
      18A      0.561945    19A      0.586897    20A      0.690116  
      21A      0.815095    22A      1.004331    23A      1.220336  
      24A      1.274890    25A      1.295196    26A      1.364427  
      27A      1.539041    28A      1.650149    29A      1.791075  
      30A      1.944864    31A      1.967140    32A      2.030635  
      33A      2.085576    34A      2.115156    35A      2.239119  
      36A      2.432357    37A      2.458958    38A      2.467305  
      39A      2.584870    40A      2.801987    41A      2.883580  
      42A      2.907473    43A      2.936304    44A      3.191400  
      45A      3.397471    46A      3.523618    47A      3.593433  
      48A      3.722589    49A      4.258464    50A      4.489034  
      51A     27.639007    52A     27.650639  

    Final Occupation by Irrep:
              A 
    DOCC [     8 ]

  Energy converged.

  @RHF Final Energy:   -77.93784162830104

   => Energetics <=

    Nuclear Repulsion Energy =             32.9941815699975365
    One-Electron Energy =                -169.1215236882498516
    Two-Electron Energy =                  58.1895004899512855
    DFT Exchange-Correlation Energy =       0.0000000000000000
    Empirical Dispersion Energy =           0.0000000000000000
    PCM Polarization Energy =               0.0000000000000000
    EFP Energy =                            0.0000000000000000
    Total Energy =                        -77.9378416283010438



Properties will be evaluated at   0.000000,   0.000000,   0.000000 Bohr

Properties computed using the SCF density matrix

  Nuclear Dipole Moment: (a.u.)
     X:     0.0000      Y:     0.0000      Z:     0.0000

  Electronic Dipole Moment: (a.u.)
     X:     0.0000      Y:     0.0000      Z:     0.0000

  Dipole Moment: (a.u.)
     X:     0.0000      Y:     0.0000      Z:     0.0000     Total:     0.0000

  Dipole Moment: (Debye)
     X:     0.0000      Y:     0.0000      Z:     0.0000     Total:     0.0000


*** tstop() called on Berts-MacBook-Pro.local at Wed Dec  6 22:41:50 2017
Module time:
	user time   =       0.38 seconds =       0.01 minutes
	system time =       0.06 seconds =       0.00 minutes
	total time  =          0 seconds =       0.00 minutes
Total time:
	user time   =       0.38 seconds =       0.01 minutes
	system time =       0.06 seconds =       0.00 minutes
	total time  =          0 seconds =       0.00 minutes

*** tstart() called on Berts-MacBook-Pro.local
*** at Wed Dec  6 22:41:54 2017


  //>>>>>>>>>>>>>>>>>>>>>>>>>>>>>>>>>>>//
  //               DFMP2               //
  //<<<<<<<<<<<<<<<<<<<<<<<<<<<<<<<<<<<//

   => Loading Basis Set <=

    Name: (DZP AUX)
    Role: RIFIT
    Keyword: DF_BASIS_MP2
    atoms 1-2 entry C          line   269 file /anaconda3/share/psi4/basis/def2-qzvpp-ri.gbs 
    atoms 3-6 entry H          line    23 file /anaconda3/share/psi4/basis/def2-qzvpp-ri.gbs 

	 --------------------------------------------------------
	                          DF-MP2                         
	      2nd-Order Density-Fitted Moller-Plesset Theory     
	              RMP2 Wavefunction,   1 Threads             
	                                                         
	        Rob Parrish, Justin Turney, Andy Simmonett,      
	           Ed Hohenstein, and C. David Sherrill          
	 --------------------------------------------------------

   => Auxiliary Basis Set <=

  Basis Set: (DZP AUX)
    Blend: DEF2-QZVPP-RI
    Number of shells: 130
    Number of basis function: 506
    Number of Cartesian functions: 666
    Spherical Harmonics?: true
    Max angular momentum: 5

	 --------------------------------------------------------
	                 NBF =    52, NAUX =   506
	 --------------------------------------------------------
	   CLASS    FOCC     OCC    AOCC    AVIR     VIR    FVIR
	   PAIRS       0       8       8      44      44       0
	 --------------------------------------------------------

	-----------------------------------------------------------
	 ==================> DF-MP2 Energies <==================== 
	-----------------------------------------------------------
	 Reference Energy          =     -77.9378416283010438 [Eh]
	 Singles Energy            =      -0.0000000000000000 [Eh]
	 Same-Spin Energy          =      -0.0614765608655602 [Eh]
	 Opposite-Spin Energy      =      -0.2503164669143499 [Eh]
	 Correlation Energy        =      -0.3117930277799101 [Eh]
	 Total Energy              =     -78.2496346560809570 [Eh]
	-----------------------------------------------------------
	 ================> DF-SCS-MP2 Energies <================== 
	-----------------------------------------------------------
	 SCS Same-Spin Scale       =       0.3333333333333333 [-]
	 SCS Opposite-Spin Scale   =       1.2000000000000000 [-]
	 SCS Same-Spin Energy      =      -0.0204921869551867 [Eh]
	 SCS Opposite-Spin Energy  =      -0.3003797602972199 [Eh]
	 SCS Correlation Energy    =      -0.3208719472524066 [Eh]
	 SCS Total Energy          =     -78.2587135755534575 [Eh]
	-----------------------------------------------------------


*** tstop() called on Berts-MacBook-Pro.local at Wed Dec  6 22:41:55 2017
Module time:
	user time   =       0.30 seconds =       0.00 minutes
	system time =       0.05 seconds =       0.00 minutes
	total time  =          1 seconds =       0.02 minutes
Total time:
	user time   =       4.59 seconds =       0.08 minutes
	system time =       0.26 seconds =       0.00 minutes
	total time  =          5 seconds =       0.08 minutes
 MINTS: Wrapper to libmints.
   by Justin Turney

   Calculation information:
      Number of threads:                 1
      Number of atoms:                   6
      Number of AO shells:              26
      Number of SO shells:              26
      Number of primitives:             50
      Number of atomic orbitals:        52
      Number of basis functions:        52

      Number of irreps:                  1
      Integral cutoff                 0.00e+00
      Number of functions per irrep: [  52 ]

 OEINTS: Overlap, kinetic, potential, dipole, and quadrupole integrals
         stored in file 35.

      Computing two-electron integrals...done
      Computed 840669 non-zero two-electron integrals.
        Stored in file 33.


         ---------------------------------------------------------
                          Configuration Interaction
                            (a 'D E T C I' module)

                 C. David Sherrill, Daniel G. A. Smith, and
                              Matt L. Leininger
         ---------------------------------------------------------


   ==> Parameters <==

    EX LEVEL       =        2      H0 BLOCKSIZE  =     1000
    VAL EX LEVEL   =        0      H0 GUESS SIZE =     1000
    H0COUPLINGSIZE =        0      H0 COUPLING   =       NO
    MAXITER        =       24      NUM PRINT     =       20
    NUM ROOTS      =        1      ICORE         =        1
    PRINT LVL      =        1      FCI           =       NO
    R CONV         = 1.00e-07      MIXED         =      YES
    E CONV         = 1.00e-07      MIXED4        =      YES
    R4S            =       NO      REPL OTF      =       NO
    DIAG METHOD    =      SEM      FOLLOW ROOT   =        0
    PRECONDITIONER = DAVIDSON      UPDATE        = DAVIDSON
    S              =   0.0000      Ms0           =      YES
    GUESS VECTOR   =  H0BLOCK      OPENTYPE      =     NONE
    COLLAPSE SIZE  =        1      HD AVG        = EVANGELISTI
    MAX NUM VECS   =       25      REF SYM       =     AUTO
    IOPEN        =       NO

    EX ALLOW       =  1  1 
    STATE AVERAGE  =  0(1.00) 

   ==> CI Orbital and Space information <==

    RAS1 LVL      =        7      A RAS3 MAX    =        2
    RAS1 MIN      =       14      B RAS3 MAX    =        2
    A RAS1 LVL    =        7      RAS4 LVL      =       52
    A RAS1 MIN    =        6      A RAS4 MAX    =        0
    A RAS1 MAX    =        8      B RAS4 MAX    =        0
    B RAS1 LVL    =        7      RAS4 MAX      =        0
    B RAS1 MIN    =        6      A RAS34 MAX   =        2
    B RAS1 MAX    =        8      B RAS34 MAX   =        2
    RAS3 LVL      =        8      RAS34 MAX     =        2
    RAS3 MAX      =        2
   ------------------------------------
               Space    Total     A
   ------------------------------------
                 Nso       52    52
                 Nmo       52    52
               Ndocc        8     8
               Nsocc        0     0
   ------------------------------------
              CI Spaces
   ------------------------------------
        Dropped DOCC        0     0
                RAS1        8     8
                RAS2        0     0
                RAS3       44    44
                RAS4        0     0
      Active (total)       52    52
        Dropped UOCC        0     0
   ------------------------------------

   ==> Setting up CI strings <==

    There are 26841 alpha and 26841 beta strings
    The CI space requires 177585 (1.78E+05) determinants and 6 blocks

   ==> Transforming CI integrals <==

	Presorting SO-basis two-electron integrals.
	Sorting File: SO Ints (nn|nn) nbuckets = 1
	Transforming the one-electron integrals and constructing Fock matrices
	Starting first half-transformation.
	Sorting half-transformed integrals.
	First half integral transformation complete.
	Starting second half-transformation.
	Two-electron integral transformation complete.

   ==> Starting CI iterations <==

    H0 Block Eigenvalue = -77.99127643

    Simultaneous Expansion Method (Block Davidson Method)
    Using 1 initial trial vectors

     Iter   Root       Total Energy       Delta E      C RMS

   @CI  0:     0    -77.991276434150   -1.1099E+02   1.4431E+00  
   @CI  1:     0    -78.224845617027   -2.3357E-01   1.6317E-01  
   @CI  2:     0    -78.249031977182   -2.4186E-02   8.2006E-02  
   @CI  3:     0    -78.253123351626   -4.0914E-03   2.7082E-02  
   @CI  4:     0    -78.253417902432   -2.9455E-04   7.3117E-03  
   @CI  5:     0    -78.253440827808   -2.2925E-05   2.0988E-03  
   @CI  6:     0    -78.253442527292   -1.6995E-06   5.9901E-04  
   @CI  7:     0    -78.253442659613   -1.3232E-07   1.6891E-04  
   @CI  8:     0    -78.253442668977   -9.3639E-09   4.0735E-05  
   @CI  9:     0    -78.253442669522   -5.4487E-10   1.0123E-05  
   @CI 10:     0    -78.253442669555   -3.2443E-11   2.1931E-06  
   @CI 11:     0    -78.253442669556   -1.4921E-12   4.5355E-07  
    Warning: Norm of correction (root 0) is < 1.0E-13
   @CI 12:     0    -78.253442669556   -4.2633E-14   1.0823E-07  
    Warning: Norm of correction (root 0) is < 1.0E-13
   @CI 13:     0    -78.253442669556   -7.1054E-14   2.5803E-08 c

   ==> Energetics <==

    SCF energy =            0.000000000000000
    Total CI energy =     -78.253442669556136

   ==> CISD root 0 information <==

    CISD Root 0 energy =   -78.253442669556136

   The 20 most important determinants:

    *   1   -0.944006  (    0,    0)  1AX 2AX 3AX 4AX 5AX 6AX 7AX 8AX 
    *   2    0.125942  (    1,    1)  1AX 2AX 3AX 4AX 5AX 6AX 7AX 9AX 
    *   3    0.042960  (    1,   81)  1AX 2AX 3AX 4AX 5AX 6AX 7AX 9AA 19AB 
    *   4    0.042960  (   81,    1)  1AX 2AX 3AX 4AX 5AX 6AX 7AX 9AB 19AA 
    *   5   -0.031849  (    1,    2)  1AX 2AX 3AX 4AX 5AX 6AX 7AA 8AB 9AX 
    *   6   -0.031849  (    2,    1)  1AX 2AX 3AX 4AX 5AX 6AX 7AB 8AA 9AX 
    *   7    0.027070  (   99,   99)  1AX 2AX 3AX 4AX 5AX 7AX 8AX 21AX 
    *   8    0.023270  (    2,    2)  1AX 2AX 3AX 4AX 5AX 6AX 8AX 9AX 
    *   9    0.021587  (    1,   99)  1AX 2AX 3AX 4AX 5AX 6AA 7AX 8AB 9AA 21AB 
    *  10    0.021587  (   99,    1)  1AX 2AX 3AX 4AX 5AX 6AB 7AX 8AA 9AB 21AA 
    *  11    0.020952  (   81,   81)  1AX 2AX 3AX 4AX 5AX 6AX 7AX 19AX 
    *  12    0.019842  (   73,   73)  1AX 2AX 3AX 4AX 5AX 6AX 7AX 18AX 
    *  13   -0.019464  (    0,   73)  1AX 2AX 3AX 4AX 5AX 6AX 7AX 8AA 18AB 
    *  14   -0.019464  (   73,    0)  1AX 2AX 3AX 4AX 5AX 6AX 7AX 8AB 18AA 
    *  15    0.019253  (    5,    5)  1AX 2AX 3AX 5AX 6AX 7AX 8AX 9AX 
    *  16    0.018360  (   36,   36)  1AX 2AX 3AX 4AX 6AX 7AX 8AX 13AX 
    *  17   -0.018057  (    2,   81)  1AX 2AX 3AX 4AX 5AX 6AX 7AB 8AA 9AA 19AB 
    *  18   -0.018057  (   81,    2)  1AX 2AX 3AX 4AX 5AX 6AX 7AA 8AB 9AB 19AA 
    *  19    0.017982  (   43,   43)  1AX 2AX 3AX 4AX 5AX 7AX 8AX 14AX 
    *  20    0.017032  (   81,   99)  1AX 2AX 3AX 4AX 5AX 6AA 7AX 8AB 19AA 21AB 

		 "A good bug is a dead bug" 

			 - Starship Troopers

		 "I didn't write FORTRAN.  That's the problem."

			 - Edward Valeev
 MINTS: Wrapper to libmints.
   by Justin Turney

   Calculation information:
      Number of threads:                 1
      Number of atoms:                   6
      Number of AO shells:              26
      Number of SO shells:              26
      Number of primitives:             50
      Number of atomic orbitals:        52
      Number of basis functions:        52

      Number of irreps:                  1
      Integral cutoff                 0.00e+00
      Number of functions per irrep: [  52 ]

 OEINTS: Overlap, kinetic, potential, dipole, and quadrupole integrals
         stored in file 35.

      Computing two-electron integrals...done
      Computed 840669 non-zero two-electron integrals.
        Stored in file 33.


*** tstart() called on Berts-MacBook-Pro.local
*** at Wed Dec  6 22:42:50 2017


	Wfn Parameters:
	--------------------
	Wavefunction         = CCSD
	Number of irreps     = 1
	Number of MOs        = 52
	Number of active MOs = 52
	AO-Basis             = NONE
	Semicanonical        = false
	Reference            = RHF
	Print Level          = 1

	IRREP	# MOs	# FZDC	# DOCC	# SOCC	# VIRT	# FZVR
	-----	-----	------	------	------	------	------
	 A	   52	    0	    8	    0	    44	    0
	Transforming integrals...
	IWL integrals will be deleted.
	(OO|OO)...
	Presorting SO-basis two-electron integrals.
	Sorting File: SO Ints (nn|nn) nbuckets = 1
	Transforming the one-electron integrals and constructing Fock matrices
	Starting first half-transformation.
	Sorting half-transformed integrals.
	First half integral transformation complete.
	Starting second half-transformation.
	Two-electron integral transformation complete.
	(OO|OV)...
	Starting second half-transformation.
	Two-electron integral transformation complete.
	(OO|VV)...
	Starting second half-transformation.
	Two-electron integral transformation complete.
	(OV|OO)...
	Starting first half-transformation.
	Sorting half-transformed integrals.
	First half integral transformation complete.
	Starting second half-transformation.
	Two-electron integral transformation complete.
	(OV|OV)...
	Starting second half-transformation.
	Two-electron integral transformation complete.
	(OV|VV)...
	Starting second half-transformation.
	Two-electron integral transformation complete.
	(VV|OO)...
	Starting first half-transformation.
	Sorting half-transformed integrals.
	First half integral transformation complete.
	Starting second half-transformation.
	Two-electron integral transformation complete.
	(VV|OV)...
	Starting second half-transformation.
	Two-electron integral transformation complete.
	(VV|VV)...
	Starting second half-transformation.
	Two-electron integral transformation complete.
	Frozen core energy     =      0.00000000000000

	Size of irrep 0 of <ab|cd> integrals:      3.748 (MW) /     29.985 (MB)
	Total:                                     3.748 (MW) /     29.985 (MB)

	Size of irrep 0 of <ia|bc> integrals:      0.681 (MW) /      5.452 (MB)
	Total:                                     0.681 (MW) /      5.452 (MB)

	Size of irrep 0 of tijab amplitudes:       0.124 (MW) /      0.991 (MB)
	Total:                                     0.124 (MW) /      0.991 (MB)

	Nuclear Rep. energy          =     32.99418156999754
	SCF energy                   =    -77.93784162830104
	One-electron energy          =   -169.12152394328194
	Two-electron energy          =     58.18950074498336
	Reference energy             =    -77.93784162830104

*** tstop() called on Berts-MacBook-Pro.local at Wed Dec  6 22:42:51 2017
Module time:
	user time   =       0.27 seconds =       0.00 minutes
	system time =       0.28 seconds =       0.00 minutes
	total time  =          1 seconds =       0.02 minutes
Total time:
	user time   =      59.85 seconds =       1.00 minutes
	system time =       1.17 seconds =       0.02 minutes
	total time  =         61 seconds =       1.02 minutes

*** tstart() called on Berts-MacBook-Pro.local
*** at Wed Dec  6 22:42:51 2017

            **************************
            *                        *
            *        CCENERGY        *
            *                        *
            **************************

    Nuclear Rep. energy (wfn)     =   32.994181569997536
    SCF energy          (wfn)     =  -77.937841628301044
    Reference energy    (file100) =  -77.937841628301044

    Input parameters:
    -----------------
    Wave function   =     CCSD
    Reference wfn   =     RHF
    Brueckner       =     No
    Memory (Mbytes) =     8000.0
    Maxiter         =   1000000
    R_Convergence   =     1.0e-07
    E_Convergence   =     1.0e-07
    Restart         =     Yes
    DIIS            =     Yes
    AO Basis        =     NONE
    ABCD            =     NEW
    Cache Level     =     2
    Cache Type      =     LOW
    Print Level     =     1
    Num. of threads =     1
    # Amps to Print =     1000000
    Print MP2 Amps? =     No
    Analyze T2 Amps =     No
    Print Pair Ener =     No
    Local CC        =     No
    SCS-MP2         =     False
    SCSN-MP2        =     False
    SCS-CCSD        =     False

MP2 correlation energy -0.3118014672184179
                Solving CC Amplitude Equations
                ------------------------------
  Iter             Energy              RMS        T1Diag      D1Diag    New D1Diag    D2Diag
  ----     ---------------------    ---------   ----------  ----------  ----------   --------
     0        -0.311801467218418    0.000e+00    0.000000    0.000000    0.000000    0.175278
     1        -0.332729458236890    6.685e-02    0.007727    0.028285    0.028285    0.205032
     2        -0.345516159214524    3.820e-02    0.010151    0.038038    0.038038    0.245293
     3        -0.348526360637721    2.026e-02    0.012451    0.047409    0.047409    0.278509
     4        -0.349160684732679    9.400e-03    0.012871    0.049313    0.049313    0.300008
     5        -0.349259814422097    2.373e-03    0.012789    0.048961    0.048961    0.303094
     6        -0.349248942141452    6.944e-04    0.012754    0.048785    0.048785    0.303206
     7        -0.349251387993959    2.358e-04    0.012751    0.048753    0.048753    0.303289
     8        -0.349250374018505    6.147e-05    0.012753    0.048756    0.048756    0.303270
     9        -0.349250571999223    1.813e-05    0.012754    0.048759    0.048759    0.303275
    10        -0.349251207990917    5.585e-06    0.012755    0.048761    0.048761    0.303280
    11        -0.349251156154776    1.660e-06    0.012755    0.048762    0.048762    0.303279
    12        -0.349251175256884    4.426e-07    0.012755    0.048762    0.048762    0.303279
    13        -0.349251163122085    1.539e-07    0.012755    0.048762    0.048762    0.303279
    14        -0.349251167023930    4.769e-08    0.012755    0.048762    0.048762    0.303279

    Iterations converged.


    Largest TIA Amplitudes:
              7   9         0.0369629444
              7   6         0.0253626941
              7   8         0.0112552566
              7  20         0.0080733170
              6   9         0.0078559534
              7  17        -0.0071915219
              7  29         0.0055570962
              6   8         0.0047394835
              4   4         0.0045879046
              5   5         0.0045807597
              4   0         0.0044703870
              5  22         0.0041123727
              3  13         0.0040416623
              3  23         0.0036660431
              4  21        -0.0029333209
              6   6         0.0027282566
              2  22         0.0027180327
              2  26        -0.0026997736
              2  40         0.0025748258
              7  24         0.0025504626
              2   2        -0.0025367130
              6  33         0.0024774117
              5  34        -0.0023158551
              4  32         0.0023094691
              6  17        -0.0020874841
              7  33        -0.0020509939
              4  10        -0.0019503321
              4  15         0.0018924661
              3  41         0.0018382283
              5  18         0.0017853953
              4  25         0.0017519561
              3  27        -0.0016385224
              6  24        -0.0016269695
              2   5         0.0015863279
              3  35         0.0015389809
              3   1        -0.0014765179
              5  11        -0.0014694086
              7  39         0.0014674469
              3  36         0.0013143401
              4  38         0.0012611967
              6  39         0.0012314119
              6  20         0.0011158626
              5  14        -0.0010584998
              2  30        -0.0010372682
              3  19        -0.0009969338
              5  37        -0.0009413397
              3  12         0.0009035677
              2  11         0.0008908253
              2  37         0.0008589923
              2  14         0.0008263443
              5  26         0.0008027579
              5   2        -0.0006158555
              1  13        -0.0005747809
              3   3        -0.0004750969
              0  40        -0.0004559688
              4  28         0.0004439466
              5  40         0.0004351373
              1  41        -0.0003914064
              3  31        -0.0003851058
              4   7        -0.0003652325
              1   1        -0.0003314099
              5  30         0.0003191703
              0  11        -0.0003044723
              0  14        -0.0003037242
              2  34        -0.0002953031
              0   2        -0.0002678022
              1  12        -0.0002454021
              1  35        -0.0002340875
              6  29        -0.0001954223
              0  37        -0.0001856576
              0   5        -0.0001534178
              1   3        -0.0001467833
              1  27        -0.0001362870
              0  22        -0.0001204990
              1  36        -0.0001197310
              2  42         0.0001191125
              1  23        -0.0001012126
              1  43         0.0000960722
              0  42         0.0000956961
              3  43         0.0000909479
              1  16        -0.0000448116
              0  34        -0.0000418952
              5  42         0.0000168019
              3  16         0.0000123075
              2  18        -0.0000076794
              0  18         0.0000050844
              1  19         0.0000043739
              0  30         0.0000025766
              1  31        -0.0000019624
              0  26         0.0000008275

    Largest TIjAb Amplitudes:
      7   7   0   0        -0.2395979357
      7   7   0  10        -0.0663479851
      7   7  10   0        -0.0663479851
      6   7   0   0        -0.0426014388
      7   6   0   0        -0.0426014388
      5   5  12  12        -0.0316188030
      6   6   0   0        -0.0278069926
      6   7   0  10        -0.0250395406
      7   6  10   0        -0.0250395406
      5   7  12   0        -0.0239279319
      7   5   0  12        -0.0239279319
      7   7  10  10        -0.0236815984
      4   4   4   4        -0.0224414374
      7   7   9   9        -0.0219849185
      5   5   5   5        -0.0218539727
      3   3   0   0        -0.0212524607
      2   7   0  12        -0.0204706940
      7   2  12   0        -0.0204706940
      6   7  10   0        -0.0204643153
      7   6   0  10        -0.0204643153
      6   7   0   4        -0.0201652744
      7   6   4   0        -0.0201652744
      5   7  12  10        -0.0198660058
      7   5  10  12        -0.0198660058
      6   6   6   6        -0.0193956536
      2   7   0   3        -0.0190532756
      7   2   3   0        -0.0190532756
      3   7   0   2        -0.0185425627
      7   3   2   0        -0.0185425627
      3   7   2   0        -0.0185319789
      7   3   0   2        -0.0185319789
      4   7   0   9         0.0184083147
      7   4   9   0         0.0184083147
      4   6   4   6        -0.0179270190
      6   4   6   4        -0.0179270190
      5   7   5   9         0.0178230088
      7   5   9   5         0.0178230088
      4   7   4   9        -0.0176526831
      7   4   9   4        -0.0176526831
      2   7  12   0        -0.0175069484
      7   2   0  12        -0.0175069484
      4   7   9   0         0.0172346614
      7   4   0   9         0.0172346614
      2   7   0   1        -0.0172215833
      7   2   1   0        -0.0172215833
      2   7   1   0        -0.0170012005
      7   2   0   1        -0.0170012005
      7   7   0   7         0.0164909648
      7   7   7   0         0.0164909648
      4   5   4   5         0.0163832273
      5   4   5   4         0.0163832273
      5   6   5   6         0.0160455251
      6   5   6   5         0.0160455251
      6   7   6   9        -0.0158594563
      7   6   9   6        -0.0158594563
      3   7   0  11         0.0154165356
      7   3  11   0         0.0154165356
      5   5   0   0        -0.0153872612
      6   6   3   3        -0.0153261731
      3   7   0   5        -0.0149787466
      7   3   5   0        -0.0149787466
      3   7   1   9        -0.0147651286
      7   3   9   1        -0.0147651286
      7   7   4   4        -0.0146757352
      2   2  12  12        -0.0146465241
      6   6   4   4        -0.0146281224
      2   7   3   0        -0.0141269008
      7   2   0   3        -0.0141269008
      3   5   1   5         0.0140193611
      5   3   5   1         0.0140193611
      5   6  12   0        -0.0140188243
      6   5   0  12        -0.0140188243
      3   7   0  14        -0.0139659774
      7   3  14   0        -0.0139659774
      6   7  10  10        -0.0138751681
      7   6  10  10        -0.0138751681
      4   4   2   2        -0.0138293349
      4   6   2   3        -0.0138175396
      6   4   3   2        -0.0138175396
      4   4   3   3        -0.0136985803
      4   7   7   9        -0.0136959731
      7   4   9   7        -0.0136959731
      4   4   0   0        -0.0136112215
      5   7   0   3         0.0135585497
      7   5   3   0         0.0135585497
      4   4   9   9        -0.0132655896
      3   5   2  12        -0.0131698201
      5   3  12   2        -0.0131698201
      4   6   4   9         0.0130306121
      6   4   9   4         0.0130306121
      5   5   4   4        -0.0129652094
      7   7  11  11        -0.0129487734
      3   7   5   0        -0.0129403582
      7   3   0   5        -0.0129403582
      3   3  12  12        -0.0129387423
      2   2   0   0        -0.0127637648
      3   6   1   6        -0.0126945599
      6   3   6   1        -0.0126945599
      4   4   7   7        -0.0126917990
      3   4   1   4        -0.0125468819
      4   3   4   1        -0.0125468819
      2   5  13  12        -0.0124521251
      5   2  12  13        -0.0124521251
      3   6   0  18         0.0122452722
      6   3  18   0         0.0122452722
      6   6   2   2        -0.0121383542
      3   3   2   2        -0.0120623236
      4   6   3   2        -0.0120424165
      6   4   2   3        -0.0120424165
      2   7  13   0        -0.0119904254
      7   2   0  13        -0.0119904254
      2   7   1  10        -0.0118850233
      7   2  10   1        -0.0118850233
      3   3   1   1        -0.0116410485
      2   7   0  16        -0.0116041640
      7   2  16   0        -0.0116041640
      2   7  13  10        -0.0115725913
      7   2  10  13        -0.0115725913
      2   7  12  10        -0.0115554928
      7   2  10  12        -0.0115554928
      5   6   4   3         0.0114837083
      6   5   3   4         0.0114837083
      4   4   0   4         0.0114785826
      4   4   4   0         0.0114785826
      7   7   3   3        -0.0113288972
      5   7   3   0         0.0112198362
      7   5   0   3         0.0112198362
      3   7  13   9        -0.0110712794
      7   3   9  13        -0.0110712794
      3   3   5   5        -0.0109770564
      4   6   9   4         0.0109273279
      6   4   4   9         0.0109273279
      6   7   0  15        -0.0109104675
      7   6  15   0        -0.0109104675
      5   5   2   2        -0.0108620230
      5   6  12  10        -0.0108461316
      6   5  10  12        -0.0108461316
      4   6   7   6        -0.0107694928
      6   4   6   7        -0.0107694928
      3   6  13   6        -0.0106817544
      6   3   6  13        -0.0106817544
      3   4  13   4        -0.0106223764
      4   3   4  13        -0.0106223764
      3   7  14   0        -0.0105703903
      7   3   0  14        -0.0105703903
      3   4   0   3         0.0105159762
      4   3   3   0         0.0105159762
      3   5  13   5         0.0104701446
      5   3   5  13         0.0104701446
      3   3  14  14        -0.0104288575
      5   6  12   7        -0.0103315515
      6   5   7  12        -0.0103315515
      7   7  12  12        -0.0103239763
      4   7   9  10         0.0103061075
      7   4  10   9         0.0103061075
      4   4  18  18        -0.0102621597
      2   4   0  18         0.0102118677
      4   2  18   0         0.0102118677
      6   7   4   4         0.0101685598
      7   6   4   4         0.0101685598
      6   6  10  10        -0.0101354727
      3   5   5  12        -0.0100826579
      5   3  12   5        -0.0100826579
      4   6   6   4        -0.0100435384
      6   4   4   6        -0.0100435384
      2   5   1  12        -0.0100290508
      5   2  12   1        -0.0100290508
      6   6  18  18        -0.0099949216
      6   7   9   9         0.0099682241
      7   6   9   9         0.0099682241
      4   5   7   5         0.0099631702
      5   4   5   7         0.0099631702
      4   7   6   0        -0.0098993119
      7   4   0   6        -0.0098993119
      3   7   2  10        -0.0098901360
      7   3  10   2        -0.0098901360
      4   5   9  12         0.0098835020
      5   4  12   9         0.0098835020
      3   5  12   2        -0.0098598735
      5   3   2  12        -0.0098598735
      6   6  14  14        -0.0098313610
      7   7   7  10         0.0098097514
      7   7  10   7         0.0098097514
      4   6   4  17        -0.0097406781
      6   4  17   4        -0.0097406781
      7   7   1   1        -0.0095956962
      3   4   0  19         0.0095599546
      4   3  19   0         0.0095599546
      4   4  14  14        -0.0095573311
      4   4  15  15        -0.0095389068
      6   6   0  10        -0.0095143447
      6   6  10   0        -0.0095143447
      2   2  13  13        -0.0095050951
      5   5  15  15        -0.0095005348
      6   6   6   9         0.0094709411
      6   6   9   6         0.0094709411
      3   7   5  10        -0.0094495985
      7   3  10   5        -0.0094495985
      6   6  16  16        -0.0094189161
      6   6  17  17        -0.0094184436
      3   5   3   2         0.0094021599
      5   3   2   3         0.0094021599
      4   6  14   3        -0.0093934812
      6   4   3  14        -0.0093934812
      3   5   2   3         0.0093482474
      5   3   3   2         0.0093482474
      2   7   2   9        -0.0093258120
      7   2   9   2        -0.0093258120
      4   6  15  17        -0.0092707527
      6   4  17  15        -0.0092707527
      4   4   4  15        -0.0092508397
      4   4  15   4        -0.0092508397
      3   7   0  26         0.0092158300
      7   3  26   0         0.0092158300
      3   3   3   3        -0.0092064004
      3   7   3   9        -0.0092035886
      7   3   9   3        -0.0092035886
      2   7   0  13        -0.0091893683
      7   2  13   0        -0.0091893683
      4   4   6   9         0.0091876272
      4   4   9   6         0.0091876272
      5   7  12   7         0.0091445973
      7   5   7  12         0.0091445973
      4   4  19  19        -0.0091262229
      4   6   3  14        -0.0091117794
      6   4  14   3        -0.0091117794
      4   4  16  16        -0.0090244853
      4   6  19  18        -0.0089874543
      6   4  18  19        -0.0089874543
      3   3   2  14        -0.0089721868
      3   3  14   2        -0.0089721868
      6   7   6   6        -0.0089349315
      7   6   6   6        -0.0089349315
      2   5   0  21        -0.0088932012
      5   2  21   0        -0.0088932012
      2   5  12  12        -0.0088774270
      5   2  12  12        -0.0088774270
      5   5  20  20        -0.0088378920
      3   5   0  17        -0.0088228138
      5   3  17   0        -0.0088228138
      4   5   2   4         0.0088044361
      5   4   4   2         0.0088044361
      5   7   0  12        -0.0087866702
      7   5  12   0        -0.0087866702
      4   7   9   4        -0.0087686224
      7   4   4   9        -0.0087686224
      4   4   6   6        -0.0087453718
      2   2   4   4        -0.0087335110
      4   6  14  16        -0.0087293743
      6   4  16  14        -0.0087293743
      4   6  16  14        -0.0086947738
      6   4  14  16        -0.0086947738
      4   5   8  12        -0.0086491795
      5   4  12   8        -0.0086491795
      3   4   5   9         0.0086314295
      4   3   9   5         0.0086314295
      2   2   0  10        -0.0085796094
      2   2  10   0        -0.0085796094
      6   7   4   0        -0.0085778043
      7   6   0   4        -0.0085778043
      2   2  12  13        -0.0085758530
      2   2  13  12        -0.0085758530
      5   7   0  16         0.0085416215
      7   5  16   0         0.0085416215
      2   4  13   9         0.0085097907
      4   2   9  13         0.0085097907
      5   6   5   9        -0.0084989153
      6   5   9   5        -0.0084989153
      2   7  10  12        -0.0084574027
      7   2  12  10        -0.0084574027
      6   6  19  19        -0.0084311960
      6   7   7   0        -0.0083942941
      7   6   0   7        -0.0083942941
      2   5  11   5         0.0083870394
      5   2   5  11         0.0083870394
      3   5   0  20         0.0083840715
      5   3  20   0         0.0083840715
      5   6  15  16         0.0083386342
      6   5  16  15         0.0083386342
      6   6   4  10        -0.0083199725
      6   6  10   4        -0.0083199725
      2   6   0  19         0.0083188465
      6   2  19   0         0.0083188465
      3   3  13  13        -0.0082905384
      5   5  17  17        -0.0082540138
      5   5  22  22        -0.0082141459
      5   5   3   3        -0.0082058070
      4   7   3  11        -0.0081774991
      7   4  11   3        -0.0081774991
      3   3   0  10        -0.0081670309
      3   3  10   0        -0.0081670309
      6   6  15  15        -0.0081668735
      3   3   1  13        -0.0080899255
      3   3  13   1        -0.0080899255
      4   4   4   7        -0.0080891262
      4   4   7   4        -0.0080891262
      3   5  11  12        -0.0080711970
      5   3  12  11        -0.0080711970
      5   5   4  15        -0.0080521006
      5   5  15   4        -0.0080521006
      2   2  10  10        -0.0080445860
      7   7   6   6        -0.0080443694
      2   5   2   5         0.0079053858
      5   2   5   2         0.0079053858
      4   4  17  17        -0.0078940282
      4   6   7   8        -0.0078725319
      6   4   8   7        -0.0078725319
      5   7   5   6         0.0078651033
      7   5   6   5         0.0078651033
      5   5   1   1        -0.0078515392
      5   5   3  12         0.0078508111
      5   5  12   3         0.0078508111
      2   7  10   1        -0.0078347263
      7   2   1  10        -0.0078347263
      3   5   5   1         0.0078189824
      5   3   1   5         0.0078189824
      4   6  18  19        -0.0078053315
      6   4  19  18        -0.0078053315
      3   6   5   4        -0.0077790727
      6   3   4   5        -0.0077790727
      3   4   1   7        -0.0077278600
      4   3   7   1        -0.0077278600
      4   7   0  17        -0.0076910244
      7   4  17   0        -0.0076910244
      2   7  11   9        -0.0076613431
      7   2   9  11        -0.0076613431
      6   6   3  16        -0.0076579961
      6   6  16   3        -0.0076579961
      2   4   1   9         0.0076085713
      4   2   9   1         0.0076085713
      4   5  16  17         0.0076077476
      5   4  17  16         0.0076077476
      4   4   2  14        -0.0076037515
      4   4  14   2        -0.0076037515
      3   3   2   5        -0.0075685500
      3   3   5   2        -0.0075685500
      6   7  21   0        -0.0075597834
      7   6   0  21        -0.0075597834
      3   7   9   1        -0.0075413405
      7   3   1   9        -0.0075413405
      3   5   0   8         0.0075303452
      5   3   8   0         0.0075303452
      2   2   6   6        -0.0075058332
      3   5   0   6        -0.0074930263
      5   3   6   0        -0.0074930263
      3   3   9   9        -0.0074925577
      3   5   3  14         0.0074886159
      5   3  14   3         0.0074886159
      3   6   1   9         0.0074883751
      6   3   9   1         0.0074883751
      2   7   0  23        -0.0074652982
      7   2  23   0        -0.0074652982
      4   7   4  20         0.0074617765
      7   4  20   4         0.0074617765
      4   6  17  15        -0.0074528416
      6   4  15  17        -0.0074528416
      2   3   0   9        -0.0074486394
      3   2   9   0        -0.0074486394
      2   6  13  10        -0.0074186252
      6   2  10  13        -0.0074186252
      2   6   2   6        -0.0074172365
      6   2   6   2        -0.0074172365
      5   5  14  14        -0.0073943107
      7   7   6   9        -0.0073815969
      7   7   9   6        -0.0073815969
      3   3  16  16        -0.0073779503
      3   5  14   3         0.0073638925
      5   3   3  14         0.0073638925
      3   4   0  16         0.0073618825
      4   3  16   0         0.0073618825
      6   7   8   9        -0.0072817640
      7   6   9   8        -0.0072817640
      6   6   2  14        -0.0072753528
      6   6  14   2        -0.0072753528
      4   4   3  16        -0.0072627271
      4   4  16   3        -0.0072627271
      6   6   9   9        -0.0072575212
      2   2  11  11        -0.0072478451
      2   6   1  10        -0.0072315216
      6   2  10   1        -0.0072315216
      2   4  11   7        -0.0072136138
      4   2   7  11        -0.0072136138
      4   5   4  22         0.0072106793
      5   4  22   4         0.0072106793
      3   5  14  12        -0.0071730991
      5   3  12  14        -0.0071730991
      3   6   5  10        -0.0071692435
      6   3  10   5        -0.0071692435
      2   6  13   4        -0.0071590502
      6   2   4  13        -0.0071590502
      5   6   4  16         0.0071312011
      6   5  16   4         0.0071312011
      2   5  12  27        -0.0071230270
      5   2  27  12        -0.0071230270
      5   6  15   3         0.0071163833
      6   5   3  15         0.0071163833
      3   3   4   4        -0.0070646059
      5   6  20  18        -0.0070620113
      6   5  18  20        -0.0070620113
      7   7   1   3        -0.0070534283
      7   7   3   1        -0.0070534283
      4   5   6  12        -0.0070526268
      5   4  12   6        -0.0070526268
      5   5   6   6        -0.0070472303
      4   6  17   4        -0.0070428733
      6   4   4  17        -0.0070428733
      2   5  12  13        -0.0070419307
      5   2  13  12        -0.0070419307
      5   5   2  14        -0.0070370144
      5   5  14   2        -0.0070370144
      6   6   7   7        -0.0070266591
      7   7   2   2        -0.0070161346
      6   7   7  10        -0.0069963219
      7   6  10   7        -0.0069963219
      4   6   0  17         0.0069797484
      6   4  17   0         0.0069797484
      5   5  21  21        -0.0069643451
      6   6   8   8        -0.0069003338
      4   4   0  15         0.0068796324
      4   4  15   0         0.0068796324
      4   5   3   6         0.0068785111
      5   4   6   3         0.0068785111
      3   3  10  10        -0.0068628424
      5   7   2   9         0.0068433849
      7   5   9   2         0.0068433849
      3   7   9   3        -0.0068375794
      7   3   3   9        -0.0068375794
      3   5  14  16         0.0068348350
      5   3  16  14         0.0068348350
      3   5   3   5         0.0068250321
      5   3   5   3         0.0068250321
      4   5  14   4         0.0068017037
      5   4   4  14         0.0068017037
      6   6  11  11        -0.0068008417
      4   6   9  10         0.0067998107
      6   4  10   9         0.0067998107
      4   6   6  10        -0.0067911876
      6   4  10   6        -0.0067911876
      4   5  14  15         0.0067892772
      5   4  15  14         0.0067892772
      2   2   1  13        -0.0067764051
      2   2  13   1        -0.0067764051
      6   6   4  15        -0.0067565152
      6   6  15   4        -0.0067565152
      3   6   4   2        -0.0067557919
      6   3   2   4        -0.0067557919
      3   6  15  14        -0.0067475583
      6   3  14  15        -0.0067475583
      5   5   0   4         0.0067424206
      5   5   4   0         0.0067424206
      5   5  11  11        -0.0067004504
      2   6  11   6        -0.0066807605
      6   2   6  11        -0.0066807605
      3   4   5   6        -0.0066795476
      4   3   6   5        -0.0066795476
      2   4  12   9         0.0066747620
      4   2   9  12         0.0066747620
      5   7   1   4        -0.0066417011
      7   5   4   1        -0.0066417011
      2   4   2   7        -0.0066346535
      4   2   7   2        -0.0066346535
      3   5  16  14         0.0066322845
      5   3  14  16         0.0066322845
      4   5  14   0        -0.0066251464
      5   4   0  14        -0.0066251464
      4   7   3   2         0.0066181206
      7   4   2   3         0.0066181206
      4   7   6  10        -0.0065910395
      7   4  10   6        -0.0065910395
      4   6   8   0        -0.0065766365
      6   4   0   8        -0.0065766365
      2   7  10   3        -0.0065543680
      7   2   3  10        -0.0065543680
      4   5   3  17         0.0065450239
      5   4  17   3         0.0065450239
      3   3  19  19        -0.0065301810
      6   6   1   1        -0.0065092693
      3   7  10   2        -0.0064596472
      7   3   2  10        -0.0064596472
      3   6  18   0         0.0064592654
      6   3   0  18         0.0064592654
      5   6  17  14         0.0064518145
      6   5  14  17         0.0064518145
      2   2  15  15        -0.0064218998
      7   7  19  19        -0.0064143783
      3   4   4  13        -0.0064105181
      4   3  13   4        -0.0064105181
      3   5  12  22         0.0064075752
      5   3  22  12         0.0064075752
      4   5  19  20        -0.0064024418
      5   4  20  19        -0.0064024418
      6   6   6  17        -0.0063918768
      6   6  17   6        -0.0063918768
      3   3  17  17        -0.0063893893
      2   2   1  12        -0.0063348005
      2   2  12   1        -0.0063348005
      3   6   3   6        -0.0063324923
      6   3   6   3        -0.0063324923
      3   4  13   7        -0.0063240818
      4   3   7  13        -0.0063240818
      5   7  12  15        -0.0063150780
      7   5  15  12        -0.0063150780
      2   7  10  13        -0.0063147235
      7   2  13  10        -0.0063147235
      7   7  18  18        -0.0063133582
      4   6  17   0         0.0063035678
      6   4   0  17         0.0063035678
      3   4   2   9         0.0063015511
      4   3   9   2         0.0063015511
      2   2   4  15        -0.0063004428
      2   2  15   4        -0.0063004428
      6   6   7  10        -0.0062879645
      6   6  10   7        -0.0062879645
      2   6  12  10        -0.0062871116
      6   2  10  12        -0.0062871116
      3   4  17  14        -0.0062778945
      4   3  14  17        -0.0062778945
      3   3  18  18        -0.0062622718
      5   7  16   0         0.0062616117
      7   5   0  16         0.0062616117
      4   7   0  20        -0.0062490134
      7   4  20   0        -0.0062490134
      2   4  13   6        -0.0062243496
      4   2   6  13        -0.0062243496
      2   5  27  12        -0.0062084155
      5   2  12  27        -0.0062084155
      2   3   2   3        -0.0062032830
      3   2   3   2        -0.0062032830
      4   5   0   5        -0.0062028095
      5   4   5   0        -0.0062028095
      2   7  23   0        -0.0061988999
      7   2   0  23        -0.0061988999
      2   3   1   5        -0.0061879903
      3   2   5   1        -0.0061879903
      4   7   9   7        -0.0061791678
      7   4   7   9        -0.0061791678
      3   3   3  16        -0.0061688901
      3   3  16   3        -0.0061688901
      7   7   5   5        -0.0061615798
      4   4  11  11        -0.0061586224
      5   7   4  19         0.0061392129
      7   5  19   4         0.0061392129
      2   2   1   1        -0.0061373862
      5   6   0   3        -0.0061311970
      6   5   3   0        -0.0061311970
      4   5   2   0        -0.0061274786
      5   4   0   2        -0.0061274786
      4   7   8  10        -0.0061273483
      7   4  10   8        -0.0061273483
      3   3  15  15        -0.0060922174
      2   2   9   9        -0.0060919096
      4   5  18  21         0.0060850439
      5   4  21  18         0.0060850439
      3   4   3   4        -0.0060828105
      4   3   4   3        -0.0060828105
      2   4  18   0         0.0060798937
      4   2   0  18         0.0060798937
      5   5   0  15         0.0060491530
      5   5  15   0         0.0060491530
      4   6   6   7        -0.0060470512
      6   4   7   6        -0.0060470512
      4   7  18  12         0.0060332971
      7   4  12  18         0.0060332971
      5   7  15  19         0.0060311874
      7   5  19  15         0.0060311874
      5   6  13   0        -0.0060301175
      6   5   0  13        -0.0060301175
      7   7   0  15        -0.0060288589
      7   7  15   0        -0.0060288589
      2   4   2   4        -0.0060202630
      4   2   4   2        -0.0060202630
      7   7   1  12        -0.0060180380
      7   7  12   1        -0.0060180380
      2   2  18  18        -0.0060128460
      4   4   1   1        -0.0060111751
      3   4  19   0         0.0059918022
      4   3   0  19         0.0059918022
      4   5  15  11        -0.0059892640
      5   4  11  15        -0.0059892640
      7   7  13  13        -0.0059494617
      5   5   5  22        -0.0059381831
      5   5  22   5        -0.0059381831
      4   7   0   6        -0.0059354302
      7   4   6   0        -0.0059354302
      2   7  16   0        -0.0059347909
      7   2   0  16        -0.0059347909
      6   6  13  13        -0.0059100463
      3   3  11  11        -0.0059099225
      4   6  11  16         0.0058976222
      6   4  16  11         0.0058976222
      2   6   1   4        -0.0058730050
      6   2   4   1        -0.0058730050
      3   6   6   1        -0.0058632508
      6   3   1   6        -0.0058632508
      7   7   3  12        -0.0058539385
      7   7  12   3        -0.0058539385
      3   6   4   5        -0.0058511892
      6   3   5   4        -0.0058511892
      3   4  15  16        -0.0058434945
      4   3  16  15        -0.0058434945
      5   6   1   4         0.0058365832
      6   5   4   1         0.0058365832
      4   7  18  19         0.0058310520
      7   4  19  18         0.0058310520
      7   7   7   7        -0.0058117545
      4   6  16  11         0.0058085683
      6   4  11  16         0.0058085683
      4   4  13  13        -0.0057988867
      3   6   2  10        -0.0057882603
      6   3  10   2        -0.0057882603
      3   7  14  10        -0.0057840773
      7   3  10  14        -0.0057840773
      2   3  13   5        -0.0057700248
      3   2   5  13        -0.0057700248
      4   7  15  20         0.0057696380
      7   4  20  15         0.0057696380
      3   7  12  20         0.0057604474
      7   3  20  12         0.0057604474
      2   6   4   1        -0.0057568197
      6   2   1   4        -0.0057568197
      5   5  13  13        -0.0057544204
      3   4   4   1        -0.0057407476
      4   3   1   4        -0.0057407476
      2   2  17  17        -0.0057317148
      2   7   3  10        -0.0057277990
      7   2  10   3        -0.0057277990
      3   5  12  14        -0.0057045157
      5   3  14  12        -0.0057045157
      3   4   4   3        -0.0056988552
      4   3   3   4        -0.0056988552
      4   6   9   7         0.0056988341
      6   4   7   9         0.0056988341
      4   7   3   5         0.0056972561
      7   4   5   3         0.0056972561
      2   6   4  13        -0.0056967153
      6   2  13   4        -0.0056967153
      2   3   3   2        -0.0056907297
      3   2   2   3        -0.0056907297
      3   3   3  12         0.0056851257
      3   3  12   3         0.0056851257
      5   6  11  17        -0.0056830907
      6   5  17  11        -0.0056830907
      6   7   2  11        -0.0056759903
      7   6  11   2        -0.0056759903
      3   6   6  13        -0.0056757638
      6   3  13   6        -0.0056757638
      2   6   1   0        -0.0056609565
      6   2   0   1        -0.0056609565
      4   6   8   7        -0.0056605918
      6   4   7   8        -0.0056605918
      4   5   3   9        -0.0056603080
      5   4   9   3        -0.0056603080
      6   7  17  20         0.0056582043
      7   6  20  17         0.0056582043
      3   3   5  14        -0.0056563773
      3   3  14   5        -0.0056563773
      6   6   0   7        -0.0056546299
      6   6   7   0        -0.0056546299
      2   2  20  20        -0.0056436099
      4   6  15   6        -0.0056428608
      6   4   6  15        -0.0056428608
      3   5   8   0         0.0056142969
      5   3   0   8         0.0056142969
      3   4   2   6        -0.0056135310
      4   3   6   2        -0.0056135310
      3   4   2  24        -0.0056012068
      4   3  24   2        -0.0056012068
      3   6   2   4        -0.0055969244
      6   3   4   2        -0.0055969244
      2   4   1   6        -0.0055963515
      4   2   6   1        -0.0055963515
      6   7   4  10        -0.0055961144
      7   6  10   4        -0.0055961144
      3   6  13   9         0.0055895045
      6   3   9  13         0.0055895045
      3   3  20  20        -0.0055889114
      5   7  10  12        -0.0055741860
      7   5  12  10        -0.0055741860
      2   3   2  13        -0.0055737480
      3   2  13   2        -0.0055737480
      3   5  17   0        -0.0055730957
      5   3   0  17        -0.0055730957
      4   6   0   6         0.0055688807
      6   4   6   0         0.0055688807
      2   3  18  19        -0.0055651711
      3   2  19  18        -0.0055651711
      5   7   4  12         0.0055648259
      7   5  12   4         0.0055648259
      3   3   0  21         0.0055604685
      3   3  21   0         0.0055604685
      7   7   0  28        -0.0055512762
      7   7  28   0        -0.0055512762
      3   6   2   7        -0.0055312014
      6   3   7   2        -0.0055312014
      3   3  22  22        -0.0055209871
      6   6   6   8        -0.0054997728
      6   6   8   6        -0.0054997728
      6   6  12  12        -0.0054963376
      2   3   6  10        -0.0054959649
      3   2  10   6        -0.0054959649
      3   7   0  22        -0.0054764618
      7   3  22   0        -0.0054764618
      3   5   2  16         0.0054643390
      5   3  16   2         0.0054643390
      7   7  20  20        -0.0054569052
      3   6  17  16        -0.0054514844
      6   3  16  17        -0.0054514844
      2   7  11   6        -0.0054514026
      7   2   6  11        -0.0054514026
      4   4  12  12        -0.0054301601
      5   7  13   0        -0.0054209891
      7   5   0  13        -0.0054209891
      6   6  23  23        -0.0054145864
      5   7   9   5         0.0054065979
      7   5   5   9         0.0054065979
      4   6  10   6        -0.0054046066
      6   4   6  10        -0.0054046066
      3   4   9   5         0.0053888968
      4   3   5   9         0.0053888968
      5   5  16  16        -0.0053761937
      2   4   9   1         0.0053705933
      4   2   1   9         0.0053705933
      4   7   7   6        -0.0053665398
      7   4   6   7        -0.0053665398
      5   5  27  27        -0.0053523522
      2   3   2   1        -0.0053327107
      3   2   1   2        -0.0053327107
      2   3   9   0        -0.0053326977
      3   2   0   9        -0.0053326977
      4   7   4   8         0.0053302357
      7   4   8   4         0.0053302357
      2   6  12   0        -0.0053299460
      6   2   0  12        -0.0053299460
      2   5   2   2         0.0053215255
      5   2   2   2         0.0053215255
      2   6  12   4        -0.0053192541
      6   2   4  12        -0.0053192541
      3   5  10  20         0.0053184509
      5   3  20  10         0.0053184509
      4   7  17   0        -0.0053174703
      7   4   0  17        -0.0053174703
      4   4   9  17         0.0052985437
      4   4  17   9         0.0052985437
      2   7  14   9        -0.0052954151
      7   2   9  14        -0.0052954151
      6   6  24  24        -0.0052928776
      3   3   6   6        -0.0052925329
      7   7   3  16        -0.0052719070
      7   7  16   3        -0.0052719070
      3   6  12  17        -0.0052718203
      6   3  17  12        -0.0052718203
      5   6   3   4         0.0052499473
      6   5   4   3         0.0052499473
      2   5   0   4         0.0052467632
      5   2   4   0         0.0052467632
      5   5   3  16        -0.0052350553
      5   5  16   3        -0.0052350553
      3   7  10  14        -0.0052346857
      7   3  14  10        -0.0052346857
      2   3   3  14        -0.0052157553
      3   2  14   3        -0.0052157553
      4   4  24  24        -0.0052138760
      4   7   3  14         0.0052114799
      7   4  14   3         0.0052114799
      2   3  14   3        -0.0052092352
      3   2   3  14        -0.0052092352
      5   7  22  20        -0.0051949045
      7   5  20  22        -0.0051949045
      5   7  23   0        -0.0051932981
      7   5   0  23        -0.0051932981
      4   5  15  22         0.0051779970
      5   4  22  15         0.0051779970
      3   3   3  13        -0.0051697392
      3   3  13   3        -0.0051697392
      2   3   0  17         0.0051662071
      3   2  17   0         0.0051662071
      3   7  10  26         0.0051546958
      7   3  26  10         0.0051546958
      5   6   6   2         0.0051541318
      6   5   2   6         0.0051541318
      3   6  12  24         0.0051512234
      6   3  24  12         0.0051512234
      2   3  13   2        -0.0051394931
      3   2   2  13        -0.0051394931
      3   4  12  15        -0.0051330764
      4   3  15  12        -0.0051330764
      2   5  21   0        -0.0051293065
      5   2   0  21        -0.0051293065
      4   7   4   6        -0.0051192910
      7   4   6   4        -0.0051192910
      3   6  14   4        -0.0051184222
      6   3   4  14        -0.0051184222
      2   6   4  12        -0.0051159074
      6   2  12   4        -0.0051159074
      4   4  23  23        -0.0051156471
      3   6   5   7        -0.0051139427
      6   3   7   5        -0.0051139427
      3   6   4  14        -0.0051130315
      6   3  14   4        -0.0051130315
      2   2   5   5        -0.0051074451
      3   5   0   9         0.0051049735
      5   3   9   0         0.0051049735
      3   6  14  15        -0.0050954891
      6   3  15  14        -0.0050954891
      2   6  11   8        -0.0050905207
      6   2   8  11        -0.0050905207
      5   6  16  15         0.0050850820
      6   5  15  16         0.0050850820
      3   7   9  13        -0.0050708767
      7   3  13   9        -0.0050708767
      4   6   2  13        -0.0050694498
      6   4  13   2        -0.0050694498
      3   7  10   5        -0.0050476363
      7   3   5  10        -0.0050476363
      3   4  14  17        -0.0050305102
      4   3  17  14        -0.0050305102
      6   7   0   7         0.0050303877
      7   6   7   0         0.0050303877
      5   6  22  17         0.0050294078
      6   5  17  22         0.0050294078
      6   6  25  25        -0.0050267480
      3   6  10  18         0.0050242163
      6   3  18  10         0.0050242163
      2   5   3   3         0.0050224904
      5   2   3   3         0.0050224904
      2   4   9  13         0.0050168955
      4   2  13   9         0.0050168955
      6   6  22  22        -0.0050118821
      3   5  16   2         0.0050083186
      5   3   2  16         0.0050083186
      7   7   8   8        -0.0050054503
      7   7  26  26        -0.0050051244
      5   5  11  22         0.0050036886
      5   5  22  11         0.0050036886
      4   4  22  22        -0.0050027965
      2   3  19  18        -0.0050024980
      3   2  18  19        -0.0050024980
      3   7   1   6        -0.0050024765
      7   3   6   1        -0.0050024765
      3   6   3  24        -0.0049984042
      6   3  24   3        -0.0049984042
      3   6   2  25         0.0049970866
      6   3  25   2         0.0049970866
      2   2   2   2        -0.0049924875
      2   6  13   7        -0.0049887120
      6   2   7  13        -0.0049887120
      5   7  20  26        -0.0049870430
      7   5  26  20        -0.0049870430
      3   7   5   4         0.0049859068
      7   3   4   5         0.0049859068
      3   6  11   0        -0.0049843205
      6   3   0  11        -0.0049843205
      4   4   8   8        -0.0049823241
      3   7  13   6        -0.0049780526
      7   3   6  13        -0.0049780526
      3   3  21  21        -0.0049668755
      6   6   3  13        -0.0049619494
      6   6  13   3        -0.0049619494
      3   4   9   2         0.0049599789
      4   3   2   9         0.0049599789
      5   5   1  13        -0.0049568359
      5   5  13   1        -0.0049568359
      6   7  18  11        -0.0049555935
      7   6  11  18        -0.0049555935
      5   6   5   8         0.0049537432
      6   5   8   5         0.0049537432
      6   6   5   5        -0.0049529595
      4   5  11  15        -0.0049501866
      5   4  15  11        -0.0049501866
      4   6   2  16        -0.0049496564
      6   4  16   2        -0.0049496564
      7   7   1  13        -0.0049465532
      7   7  13   1        -0.0049465532
      4   7   2   3         0.0049430384
      7   4   3   2         0.0049430384
      5   6  22   6         0.0049416273
      6   5   6  22         0.0049416273
      2   2  21  21        -0.0049310417
      3   6   0  14         0.0049305000
      6   3  14   0         0.0049305000
      2   5   4  15        -0.0049286851
      5   2  15   4        -0.0049286851
      2   5   5  11         0.0049277172
      5   2  11   5         0.0049277172
      3   6  20  19         0.0049208744
      6   3  19  20         0.0049208744
      2   2  22  22        -0.0049200505
      3   3  24  24        -0.0049118018
      3   6  12   8         0.0048827122
      6   3   8  12         0.0048827122
      7   7  10  15        -0.0048607721
      7   7  15  10        -0.0048607721
      2   3   4   9         0.0048532454
      3   2   9   4         0.0048532454
      6   7  14  11        -0.0048530731
      7   6  11  14        -0.0048530731
      6   7   3  19        -0.0048493091
      7   6  19   3        -0.0048493091
      4   5  17  16         0.0048364252
      5   4  16  17         0.0048364252
      3   5   9  21        -0.0048308790
      5   3  21   9        -0.0048308790
      5   6   2  24         0.0048290584
      6   5  24   2         0.0048290584
      6   6  11  14         0.0048211846
      6   6  14  11         0.0048211846
      5   6   0  16        -0.0048195173
      6   5  16   0        -0.0048195173
      2   7   0  27         0.0048165706
      7   2  27   0         0.0048165706
      2   5   6  20         0.0048157339
      5   2  20   6         0.0048157339
      3   5   5   3         0.0048090583
      5   3   3   5         0.0048090583
      4   6  13   2        -0.0047903432
      6   4   2  13        -0.0047903432
      3   6  22   4        -0.0047878895
      6   3   4  22        -0.0047878895
      3   4  12   7         0.0047873974
      4   3   7  12         0.0047873974
      4   5  18   4        -0.0047852558
      5   4   4  18        -0.0047852558
      2   4  12  17        -0.0047839707
      4   2  17  12        -0.0047839707
      4   7   8   0        -0.0047831027
      7   4   0   8        -0.0047831027
      2   5  14   5         0.0047736142
      5   2   5  14         0.0047736142
      3   6  15  11         0.0047727385
      6   3  11  15         0.0047727385
      2   6  19   0         0.0047719284
      6   2   0  19         0.0047719284
      3   4   3   7        -0.0047546082
      4   3   7   3        -0.0047546082
      6   7  18  26        -0.0047481194
      7   6  26  18        -0.0047481194
      2   7   6  18         0.0047407345
      7   2  18   6         0.0047407345
      4   4   5   5        -0.0047362108
      2   5   4  21         0.0047252267
      5   2  21   4         0.0047252267
      2   6   1   7        -0.0047244973
      6   2   7   1        -0.0047244973
      2   3  14  16        -0.0047241698
      3   2  16  14        -0.0047241698
      4   5   7   2         0.0047149297
      5   4   2   7         0.0047149297
      2   2   0   4         0.0047111285
      2   2   4   0         0.0047111285
      5   7   6  11         0.0047088070
      7   5  11   6         0.0047088070
      4   7  18   1         0.0047061122
      7   4   1  18         0.0047061122
      3   3  25  25        -0.0047016907
      5   7   9   2         0.0046924356
      7   5   2   9         0.0046924356
      3   7   2   7         0.0046881583
      7   3   7   2         0.0046881583
      3   7  11  10        -0.0046859483
      7   3  10  11        -0.0046859483
      4   7  17   4         0.0046811878
      7   4   4  17         0.0046811878
      4   6   0   9        -0.0046804483
      6   4   9   0        -0.0046804483
      2   6  10  19         0.0046797880
      6   2  19  10         0.0046797880
      4   6   7   9         0.0046784429
      6   4   9   7         0.0046784429
      5   6  12   4        -0.0046710996
      6   5   4  12        -0.0046710996
      2   7  10  23        -0.0046694712
      7   2  23  10        -0.0046694712
      4   6  24  25         0.0046602786
      6   4  25  24         0.0046602786
      5   7  21   3        -0.0046576862
      7   5   3  21        -0.0046576862
      3   3   1   3        -0.0046576135
      3   3   3   1        -0.0046576135
      6   6   1  13        -0.0046472289
      6   6  13   1        -0.0046472289
      1   1  42  42        -0.0046425960
      1   1  43  43        -0.0046405701
      0   1  42  43        -0.0046395029
      1   0  43  42        -0.0046395029
      0   1  43  42        -0.0046394399
      1   0  42  43        -0.0046394399
      0   0  42  42        -0.0046392303
      4   4  11  14         0.0046383528
      4   4  14  11         0.0046383528
      5   6   0  19        -0.0046374624
      6   5  19   0        -0.0046374624
      4   5  24  12        -0.0046373499
      5   4  12  24        -0.0046373499
      0   0  43  43        -0.0046372818
      3   4   9  18         0.0046318878
      4   3  18   9         0.0046318878
      4   6  20   4        -0.0046160857
      6   4   4  20        -0.0046160857
      2   5  14  14         0.0046074451
      5   2  14  14         0.0046074451
      4   6   5   1        -0.0046073052
      6   4   1   5        -0.0046073052
[...]
      0   0  27   3         0.0000011978
      1   6  42  21         0.0000011956
      6   1  21  42         0.0000011956
      0   7  33  14        -0.0000011866
      7   0  14  33        -0.0000011866
      6   7  43   1         0.0000011845
      7   6   1  43         0.0000011845
      0   5  35  19         0.0000011838
      5   0  19  35         0.0000011838
      0   2   3  19        -0.0000011687
      2   0  19   3        -0.0000011687
      1   3  30  11         0.0000011602
      3   1  11  30         0.0000011602
      0   0  18  34        -0.0000011533
      0   0  34  18        -0.0000011533
      1   1  18  34        -0.0000011442
      1   1  34  18        -0.0000011442
      0   6  43  10         0.0000011407
      6   0  10  43         0.0000011407
      0   3  40  19        -0.0000011373
      3   0  19  40        -0.0000011373
      6   7  42  37        -0.0000011010
      7   6  37  42        -0.0000011010
      1   7  43   6         0.0000010980
      7   1   6  43         0.0000010980
      0   6  30  17        -0.0000010948
      6   0  17  30        -0.0000010948
      0   0  18  18        -0.0000010948
      1   1  18  37         0.0000010885
      1   1  37  18         0.0000010885
      3   4  15   1        -0.0000010814
      4   3   1  15        -0.0000010814
      4   7  42   3        -0.0000010809
      7   4   3  42        -0.0000010809
      1   5  16  18         0.0000010808
      5   1  18  16         0.0000010808
      0   1   5  19         0.0000010771
      1   0  19   5         0.0000010771
      1   4  42   9        -0.0000010694
      4   1   9  42        -0.0000010694
      0   4  43   6         0.0000010604
      4   0   6  43         0.0000010604
      3   3  30  42        -0.0000010584
      3   3  42  30        -0.0000010584
      1   6  35  33        -0.0000010466
      6   1  33  35        -0.0000010466
      1   3  14  30        -0.0000010456
      3   1  30  14        -0.0000010456
      1   7  32  22        -0.0000010365
      7   1  22  32        -0.0000010365
      0   7  42   8        -0.0000010352
      7   0   8  42        -0.0000010352
      1   5  22   1        -0.0000010239
      5   1   1  22        -0.0000010239
      0   2  19  36        -0.0000010196
      2   0  36  19        -0.0000010196
      4   5  42   0        -0.0000010173
      5   4   0  42        -0.0000010173
      1   5  35  37        -0.0000010140
      5   1  37  35        -0.0000010140
      0   6  43  15         0.0000010042
      6   0  15  43         0.0000010042
      1   7  43  39         0.0000010034
      7   1  39  43         0.0000010034
      1   5  19  42         0.0000009966
      5   1  42  19         0.0000009966
      0   3   2   3         0.0000009959
      3   0   3   2         0.0000009959
      1   7  13  24        -0.0000009928
      7   1  24  13        -0.0000009928
      1   2  41  18         0.0000009913
      2   1  18  41         0.0000009913
      1   2  19  11        -0.0000009893
      2   1  11  19        -0.0000009893
      6   6  16  19        -0.0000009863
      6   6  19  16        -0.0000009863
      5   6  42   6        -0.0000009817
      6   5   6  42        -0.0000009817
      1   7  24   3        -0.0000009803
      7   1   3  24        -0.0000009803
      0   5  17   9        -0.0000009781
      5   0   9  17        -0.0000009781
      1   4  28  23        -0.0000009779
      4   1  23  28        -0.0000009779
      2   5  25  28        -0.0000009702
      5   2  28  25        -0.0000009702
      2   6  43   4         0.0000009679
      6   2   4  43         0.0000009679
      1   4  15  31        -0.0000009664
      4   1  31  15        -0.0000009664
      1   3  12  19         0.0000009647
      3   1  19  12         0.0000009647
      0   6  42   9        -0.0000009565
      6   0   9  42        -0.0000009565
      0   6  43  28        -0.0000009445
      6   0  28  43        -0.0000009445
      4   7  34  43         0.0000009433
      7   4  43  34         0.0000009433
      2   3  42  19        -0.0000009411
      3   2  19  42        -0.0000009411
      1   4  30  24        -0.0000009375
      4   1  24  30        -0.0000009375
      1   7  31  24         0.0000009371
      7   1  24  31         0.0000009371
      6   7  27  43         0.0000009306
      7   6  43  27         0.0000009306
      1   4  25  16         0.0000009306
      4   1  16  25         0.0000009306
      0   5  10  10        -0.0000009277
      5   0  10  10        -0.0000009277
      1   7   9  35         0.0000009267
      7   1  35   9         0.0000009267
      2   6  42  20        -0.0000009250
      6   2  20  42        -0.0000009250
      0   6  18   8        -0.0000009244
      6   0   8  18        -0.0000009244
      0   6  42   6        -0.0000009199
      6   0   6  42        -0.0000009199
      0   4  35  17         0.0000009098
      4   0  17  35         0.0000009098
      3   5  43  18        -0.0000009085
      5   3  18  43        -0.0000009085
      0   4  43   9        -0.0000009053
      4   0   9  43        -0.0000009053
      3   5  42   3        -0.0000009035
      5   3   3  42        -0.0000009035
      0   7   8   2        -0.0000009024
      7   0   2   8        -0.0000009024
      1   4  43   7        -0.0000008959
      4   1   7  43        -0.0000008959
      0   2  18  34         0.0000008950
      2   0  34  18         0.0000008950
      0   4  43  29         0.0000008914
      4   0  29  43         0.0000008914
      0   3  18  41         0.0000008896
      3   0  41  18         0.0000008896
      3   3  26  42         0.0000008841
      3   3  42  26         0.0000008841
      0   7  43  10         0.0000008840
      7   0  10  43         0.0000008840
      1   5  18  12        -0.0000008771
      5   1  12  18        -0.0000008771
      0   7   1   7        -0.0000008758
      7   0   7   1        -0.0000008758
      0   6  19  21        -0.0000008697
      6   0  21  19        -0.0000008697
      2   3  28   6        -0.0000008694
      3   2   6  28        -0.0000008694
      0   6   9   2         0.0000008693
      6   0   2   9         0.0000008693
      0   0  18  37         0.0000008661
      0   0  37  18         0.0000008661
      3   6  24  31        -0.0000008595
      6   3  31  24        -0.0000008595
      0   5  18   5        -0.0000008581
      5   0   5  18        -0.0000008581
      2   4  42  10         0.0000008534
      4   2  10  42         0.0000008534
      1   1  18  18        -0.0000008534
      0   6  16   7        -0.0000008502
      6   0   7  16        -0.0000008502
      0   1  39  28        -0.0000008450
      1   0  28  39        -0.0000008450
      3   3  31  43         0.0000008249
      3   3  43  31         0.0000008249
      0   4  42  28        -0.0000008234
      4   0  28  42        -0.0000008234
      0   5  26  34         0.0000008209
      5   0  34  26         0.0000008209
      0   2  29   8         0.0000008125
      2   0   8  29         0.0000008125
      5   7  43   4         0.0000008118
      7   5   4  43         0.0000008118
      1   7  39   3         0.0000008083
      7   1   3  39         0.0000008083
      0   0   1  31        -0.0000008070
      0   0  31   1        -0.0000008070
      0   1  31  26         0.0000008036
      1   0  26  31         0.0000008036
      1   5  31  37         0.0000008010
      5   1  37  31         0.0000008010
      0   2  18   2        -0.0000007982
      2   0   2  18        -0.0000007982
      1   1  19  19        -0.0000007957
      0   7  22   9         0.0000007739
      7   0   9  22         0.0000007739
      0   6   1  21        -0.0000007706
      6   0  21   1        -0.0000007706
      2   2  31  43         0.0000007689
      2   2  43  31         0.0000007689
      6   7  42   2         0.0000007681
      7   6   2  42         0.0000007681
      1   5  30   3        -0.0000007634
      5   1   3  30        -0.0000007634
      0   0  19  19        -0.0000007621
      1   5  43  30         0.0000007616
      5   1  30  43         0.0000007616
      0   4  42   7        -0.0000007554
      4   0   7  42        -0.0000007554
      1   7  43  24         0.0000007529
      7   1  24  43         0.0000007529
      5   7  42  24        -0.0000007513
      7   5  24  42        -0.0000007513
      1   6  25  14        -0.0000007411
      6   1  14  25        -0.0000007411
      1   3  12  31         0.0000007349
      3   1  31  12         0.0000007349
      0   1  19   5         0.0000007341
      1   0   5  19         0.0000007341
      1   7   7  34         0.0000007234
      7   1  34   7         0.0000007234
      0   6  31   4        -0.0000007202
      6   0   4  31        -0.0000007202
      6   7   2  42         0.0000007111
      7   6  42   2         0.0000007111
      4   5  43  20         0.0000007005
      5   4  20  43         0.0000007005
      1   2  18  35        -0.0000006829
      2   1  35  18        -0.0000006829
      1   7  42  28        -0.0000006825
      7   1  28  42        -0.0000006825
      1   7  21   2         0.0000006727
      7   1   2  21         0.0000006727
      0   5  43  16         0.0000006716
      5   0  16  43         0.0000006716
      0   7  21   3        -0.0000006585
      7   0   3  21        -0.0000006585
      0   2  30   2         0.0000006542
      2   0   2  30         0.0000006542
      0   4  42   4         0.0000006534
      4   0   4  42         0.0000006534
      1   5  30   1         0.0000006492
      5   1   1  30         0.0000006492
      0   4  28  34         0.0000006483
      4   0  34  28         0.0000006483
      0   3   3  11         0.0000006474
      3   0  11   3         0.0000006474
      0   4  10   2        -0.0000006460
      4   0   2  10        -0.0000006460
      1   5  30  16        -0.0000006408
      5   1  16  30        -0.0000006408
      3   5  18  43        -0.0000006360
      5   3  43  18        -0.0000006360
      0   6  43   7        -0.0000006341
      6   0   7  43        -0.0000006341
      0   3  27  18        -0.0000006286
      3   0  18  27        -0.0000006286
      0   4  43   8        -0.0000006239
      4   0   8  43        -0.0000006239
      1   2  16   2         0.0000006208
      2   1   2  16         0.0000006208
      1   3   2  30         0.0000006120
      3   1  30   2         0.0000006120
      0   4  30  15         0.0000006054
      4   0  15  30         0.0000006054
      5   7  10   1         0.0000006042
      7   5   1  10         0.0000006042
      5   6  30  39        -0.0000005999
      6   5  39  30        -0.0000005999
      0   5  19  43         0.0000005964
      5   0  43  19         0.0000005964
      4   4  27  41         0.0000005911
      4   4  41  27         0.0000005911
      1   7  28  37         0.0000005838
      7   1  37  28         0.0000005838
      1   5  43  37        -0.0000005789
      5   1  37  43        -0.0000005789
      3   5  31  42         0.0000005765
      5   3  42  31         0.0000005765
      0   6  43  21        -0.0000005759
      6   0  21  43        -0.0000005759
      0   4  42  10         0.0000005565
      4   0  10  42         0.0000005565
      1   4   2   8        -0.0000005390
      4   1   8   2        -0.0000005390
      2   3  30  43        -0.0000005304
      3   2  43  30        -0.0000005304
      0   1  16  18        -0.0000005276
      1   0  18  16        -0.0000005276
      0   3  32  29        -0.0000005262
      3   0  29  32        -0.0000005262
      0   3  14  23         0.0000005151
      3   0  23  14         0.0000005151
      1   5  13  30         0.0000005103
      5   1  30  13         0.0000005103
      1   7  18  28        -0.0000005035
      7   1  28  18        -0.0000005035
      1   5  18  43        -0.0000004964
      5   1  43  18        -0.0000004964
      2   7  43   7        -0.0000004955
      7   2   7  43        -0.0000004955
      5   6  42  24        -0.0000004862
      6   5  24  42        -0.0000004862
      0   5  18  42        -0.0000004703
      5   0  42  18        -0.0000004703
      0   1  18  16        -0.0000004684
      1   0  16  18        -0.0000004684
      4   5   7  42         0.0000004663
      5   4  42   7         0.0000004663
      1   7  42  25        -0.0000004642
      7   1  25  42        -0.0000004642
      3   7  42  25         0.0000004629
      7   3  25  42         0.0000004629
      0   6  42  29         0.0000004615
      6   0  29  42         0.0000004615
      3   3  23  35         0.0000004582
      3   3  35  23         0.0000004582
      1   6   0  11         0.0000004434
      6   1  11   0         0.0000004434
      2   5  43   1        -0.0000004286
      5   2   1  43        -0.0000004286
      1   1   1  31        -0.0000004284
      1   1  31   1        -0.0000004284
      0   3  15  24         0.0000004282
      3   0  24  15         0.0000004282
      2   4  32  42        -0.0000004201
      4   2  42  32        -0.0000004201
      0   5  19  16         0.0000004196
      5   0  16  19         0.0000004196
      1   5  42  19        -0.0000004138
      5   1  19  42        -0.0000004138
      1   3   1  19         0.0000004071
      3   1  19   1         0.0000004071
      0   3   2  19         0.0000004044
      3   0  19   2         0.0000004044
      1   5  30  43         0.0000004041
      5   1  43  30         0.0000004041
      1   3   3  35        -0.0000004012
      3   1  35   3        -0.0000004012
      0   4   5   7         0.0000004010
      4   0   7   5         0.0000004010
      0   4  25  37         0.0000003969
      4   0  37  25         0.0000003969
      0   5  14  18        -0.0000003819
      5   0  18  14        -0.0000003819
      0   6  31  15        -0.0000003813
      6   0  15  31        -0.0000003813
      5   5  18  40        -0.0000003751
      5   5  40  18        -0.0000003751
      0   2  16  23        -0.0000003745
      2   0  23  16        -0.0000003745
      0   2   7  21        -0.0000003647
      2   0  21   7        -0.0000003647
      1   4  42  20        -0.0000003505
      4   1  20  42        -0.0000003505
      0   2  35  19        -0.0000003447
      2   0  19  35        -0.0000003447
      0   7  11  33         0.0000003362
      7   0  33  11         0.0000003362
      1   5  18  16         0.0000003301
      5   1  16  18         0.0000003301
      3   5  42  19        -0.0000003268
      5   3  19  42        -0.0000003268
      0   0  16  19        -0.0000003118
      0   0  19  16        -0.0000003118
      1   5  43  18        -0.0000002981
      5   1  18  43        -0.0000002981
      0   5  43  19        -0.0000002956
      5   0  19  43        -0.0000002956
      2   5  38  25        -0.0000002941
      5   2  25  38        -0.0000002941
      1   3  18  37        -0.0000002810
      3   1  37  18        -0.0000002810
      0   4  18  25         0.0000002779
      4   0  25  18         0.0000002779
      1   7  24  41        -0.0000002616
      7   1  41  24        -0.0000002616
      3   7  42  38         0.0000002588
      7   3  38  42         0.0000002588
      4   7  43  37        -0.0000002578
      7   4  37  43        -0.0000002578
      0   1  28  39         0.0000002526
      1   0  39  28         0.0000002526
      1   6  41  20        -0.0000002483
      6   1  20  41        -0.0000002483
      1   1  16  19        -0.0000002428
      1   1  19  16        -0.0000002428
      0   5  42  18         0.0000002281
      5   0  18  42         0.0000002281
      0   5   0   7        -0.0000002236
      5   0   7   0        -0.0000002236
      0   6  26  29        -0.0000002222
      6   0  29  26        -0.0000002222
      1   3  22  18         0.0000002221
      3   1  18  22         0.0000002221
      4   4  30  42        -0.0000002201
      4   4  42  30        -0.0000002201
      1   4  19  15         0.0000002132
      4   1  15  19         0.0000002132
      2   7  42   8         0.0000002046
      7   2   8  42         0.0000002046
      0   7  43   7        -0.0000002000
      7   0   7  43        -0.0000002000
      0   1  16  30        -0.0000001842
      1   0  30  16        -0.0000001842
      1   7  43  33        -0.0000001825
      7   1  33  43        -0.0000001825
      0   1  26  31         0.0000001804
      1   0  31  26         0.0000001804
      0   4  31  20        -0.0000001677
      4   0  20  31        -0.0000001677
      7   7  36  43        -0.0000001666
      7   7  43  36        -0.0000001666
      1   6  42   4         0.0000001657
      6   1   4  42         0.0000001657
      2   6  17  42         0.0000001580
      6   2  42  17         0.0000001580
      0   2  30  37        -0.0000001516
      2   0  37  30        -0.0000001516
      1   6  25  22        -0.0000001511
      6   1  22  25        -0.0000001511
      1   6  30   7         0.0000001305
      6   1   7  30         0.0000001305
      1   3  11  30         0.0000001253
      3   1  30  11         0.0000001253
      4   7  42  27         0.0000001245
      7   4  27  42         0.0000001245
      0   5  30  42         0.0000001167
      5   0  42  30         0.0000001167
      1   4  43  10        -0.0000001085
      4   1  10  43        -0.0000001085
      1   5  17   7        -0.0000000988
      5   1   7  17        -0.0000000988
      1   5  11  19         0.0000000948
      5   1  19  11         0.0000000948
      1   6  30  25         0.0000000788
      6   1  25  30         0.0000000788
      2   3  19  42         0.0000000765
      3   2  42  19         0.0000000765
      2   3  43  18         0.0000000640
      3   2  18  43         0.0000000640
      0   6  42   8        -0.0000000549
      6   0   8  42        -0.0000000549
      3   7   8  23         0.0000000546
      7   3  23   8         0.0000000546
      0   1  30  16         0.0000000544
      1   0  16  30         0.0000000544
      2   5  42  37        -0.0000000490
      5   2  37  42        -0.0000000490
      0   4  42  21        -0.0000000465
      4   0  21  42        -0.0000000465
      0   7  43  15         0.0000000432
      7   0  15  43         0.0000000432
      0   5  30  18        -0.0000000387
      5   0  18  30        -0.0000000387
      3   5  19  42        -0.0000000378
      5   3  42  19        -0.0000000378
      0   4  43  20         0.0000000312
      4   0  20  43         0.0000000312
      7   7  34  42        -0.0000000306
      7   7  42  34        -0.0000000306
      1   6  18  38         0.0000000290
      6   1  38  18         0.0000000290
      4   6  30  16        -0.0000000247
      6   4  16  30        -0.0000000247
      4   5  25  42        -0.0000000170
      5   4  42  25        -0.0000000170
      0   7  13  21        -0.0000000167
      7   0  21  13        -0.0000000167

    SCF energy       (wfn)                    =  -77.937841628301044
    Reference energy (file100)                =  -77.937841628301044

    Opposite-spin MP2 correlation energy      =   -0.250326956037613
    Same-spin MP2 correlation energy          =   -0.061474511180804
    MP2 correlation energy                    =   -0.311801467218418
      * MP2 total energy                      =  -78.249643095519460

    Opposite-spin CCSD correlation energy     =   -0.294738171399177
    Same-spin CCSD correlation energy         =   -0.054512995624753
    CCSD correlation energy                   =   -0.349251167023930
      * CCSD total energy                     =  -78.287092795324980


*** tstop() called on Berts-MacBook-Pro.local at Wed Dec  6 22:45:23 2017
Module time:
	user time   =     148.26 seconds =       2.47 minutes
	system time =       3.33 seconds =       0.06 minutes
	total time  =        152 seconds =       2.53 minutes
Total time:
	user time   =     208.11 seconds =       3.47 minutes
	system time =       4.50 seconds =       0.07 minutes
	total time  =        213 seconds =       3.55 minutes

*** Psi4 exiting successfully. Buy a developer a beer!
