
    -----------------------------------------------------------------------
          Psi4: An Open-Source Ab Initio Electronic Structure Package
                               Psi4 1.1 release

                         Git: Rev {HEAD} add49b9 


    R. M. Parrish, L. A. Burns, D. G. A. Smith, A. C. Simmonett,
    A. E. DePrince III, E. G. Hohenstein, U. Bozkaya, A. Yu. Sokolov,
    R. Di Remigio, R. M. Richard, J. F. Gonthier, A. M. James,
    H. R. McAlexander, A. Kumar, M. Saitow, X. Wang, B. P. Pritchard,
    P. Verma, H. F. Schaefer III, K. Patkowski, R. A. King, E. F. Valeev,
    F. A. Evangelista, J. M. Turney, T. D. Crawford, and C. D. Sherrill,
    J. Chem. Theory Comput. in press (2017).
    (doi: 10.1021/acs.jctc.7b00174)

    -----------------------------------------------------------------------


    Psi4 started on: Wednesday, 06 December 2017 11:13PM

    Process ID:  12206
    PSIDATADIR: /anaconda3/share/psi4
    Memory:     500.0 MiB
    Threads:    1
    
  ==> Input File <==

--------------------------------------------------------------------------
"""This is a template for psi4 input format."""
import numpy
import sys

from openfermion.config import *
from openfermion.ops._interaction_tensor import (one_body_basis_change,
                                              two_body_basis_change)
from openfermion.hamiltonians import MolecularData
from numpy import array

sys.path.append('/Users/wadejong/Desktop/Quantum-Computing/OpenFermion/OpenFermion-Psi4/openfermionpsi4')
from _psi4_conversion_functions import *

# Set number of threads in PSI4
set_num_threads(8)

# Set memory that job can use in megabytes.
memory 8000 mb

# Initialize molecular data.
_description = 'ethylene_2.59181'
if _description == 'None':
    _description = None
molecule = MolecularData([['C', array([ 0.      ,  0.      ,  0.673055])], ['C', array([ 0.      ,  0.      , -0.673055])], ['H', array([ 0.      ,  0.934981,  1.246807])], ['H', array([ 0.      , -0.934981,  1.246807])], ['H', array([ 0.48852623,  0.79720235, -1.246807  ])], ['H', array([-0.48852623, -0.79720235, -1.246807  ])]],
                         'DZP',
                         1,
                         0,
                         _description,
                          filename='/Users/wadejong/Desktop/QCQCSiddiqi/8_Qubit_Simulation/data/H4-C2_DZP_singlet_ethylene_2.59181')

# Set molecular geometry and symmetry.
molecule mol {
C 0.0 0.0 0.673055
C 0.0 0.0 -0.673055
H 0.0 0.934981 1.246807
H 0.0 -0.934981 1.246807
H 0.4885262305366826 0.7972023535079534 -1.246807
H -0.4885262305366826 -0.7972023535079534 -1.246807
symmetry c1
}
mol.set_multiplicity(1)
mol.set_molecular_charge(0)

# Set reference and guess.
if molecule.multiplicity == 1:
    set reference rhf
    set guess sad
    set sad_frac_occ true
else:
    set reference rohf
    set guess sad
    set sad_frac_occ true

# Set global parameters of calculation.
set globals {
    basis DZP
    freeze_core false
    fail_on_maxiter true
    df_scf_guess false
    guess sad
    sad_frac_occ true
    opdm false
    tpdm false
    soscf true
    scf_type pk
    diis true
    maxiter 1e6
    num_amps_print 1e6
    r_convergence 1e-7
    d_convergence 1e-7
    e_convergence 1e-7
    ints_tolerance EQUALITY_TOLERANCE
    damping_percentage 0
}

# Run self-consistent field (SCF) calculation.
if True:
    try:

        hf_energy, hf_wavefunction = energy('scf', return_wfn=True)
        scf_wfn = hf_wavefunction
        if True:
            print('Hartree-Fock energy for {} ({} electrons) is {}.'.format(
                molecule.name, molecule.n_electrons, hf_energy))
    except:
        if True:
            print('WARNING: SCF calculation failed.')
        else:
            raise
    else:
        # Get orbitals and Fock matrix.
        molecule.hf_energy = hf_energy
        molecule.nuclear_repulsion = mol.nuclear_repulsion_energy()
        molecule.canonical_orbitals = numpy.asarray(hf_wavefunction.Ca())
        molecule.n_orbitals = molecule.canonical_orbitals.shape[0]
        molecule.n_qubits = 2 * molecule.n_orbitals
        molecule.orbital_energies = numpy.asarray(hf_wavefunction.epsilon_a())
        molecule.fock_matrix = numpy.asarray(hf_wavefunction.Fa())

        # Get integrals using MintsHelper.
        mints = MintsHelper(hf_wavefunction.basisset())
        molecule.one_body_integrals = one_body_basis_change(
            numpy.asarray(mints.ao_kinetic()), molecule.canonical_orbitals)
        molecule.one_body_integrals += one_body_basis_change(
            numpy.asarray(mints.ao_potential()), molecule.canonical_orbitals)
        two_body_integrals = numpy.asarray(mints.ao_eri())
        two_body_integrals.reshape((molecule.n_orbitals, molecule.n_orbitals,
                                    molecule.n_orbitals, molecule.n_orbitals))
        two_body_integrals = numpy.einsum('psqr', two_body_integrals)
        two_body_integrals = two_body_basis_change(
            two_body_integrals, molecule.canonical_orbitals)
        molecule.two_body_integrals = two_body_integrals
        molecule.save()


# Perform MP2 energy calculation if there are at least two electrons.
if True:
    try:
        assert molecule.n_electrons > 1
        mp2_energy = energy('mp2',ref_wfn=scf_wfn)
        if True:
            print('MP2 energy for {} ({} electrons) is {}.'.format(
                molecule.name, molecule.n_electrons, mp2_energy))
    except:
        if True:
            print('WARNING: MP2 calculation failed.')
        else:
            raise
    else:
        molecule.mp2_energy = mp2_energy
        molecule.save()


# Perform configuration interaction singles and doubles (CISD) calculation.
if True:
    set qc_module detci
    try:
        cisd_energy, cisd_wavefunction = energy('cisd', ref_wfn=scf_wfn, return_wfn=True)
        if True:
            print('CISD energy for {} ({} electrons) is {}.'.format(
                molecule.name, molecule.n_electrons, cisd_energy))
    except:
        if True:
            print('WARNING: CISD calculation failed.')
        else:
            raise
    else:
        # For the functions below, "a" and "b" refer to "up and "down" spins.
        molecule.cisd_energy = cisd_energy

        # Get 1-RDM from CISD calculation.
        """cisd_one_rdm_a = numpy.array(cisd_wavefunction.get_opdm(
            0, 0, 'A', True)).reshape(molecule.n_orbitals, molecule.n_orbitals)
        cisd_one_rdm_b = numpy.array(cisd_wavefunction.get_opdm(
            0, 0, 'B', True)).reshape(molecule.n_orbitals, molecule.n_orbitals)

        # Get 2-RDM from CISD calculation.
        cisd_two_rdm_aa = numpy.array(cisd_wavefunction.get_tpdm(
            'AA', False)).reshape(molecule.n_orbitals, molecule.n_orbitals,
                                  molecule.n_orbitals, molecule.n_orbitals)
        cisd_two_rdm_ab = numpy.array(cisd_wavefunction.get_tpdm(
            'AB', False)).reshape(molecule.n_orbitals, molecule.n_orbitals,
                                  molecule.n_orbitals, molecule.n_orbitals)
        cisd_two_rdm_bb = numpy.array(cisd_wavefunction.get_tpdm(
            'BB', False)).reshape(molecule.n_orbitals, molecule.n_orbitals,
                                  molecule.n_orbitals, molecule.n_orbitals)

        # Get overall RDMs.
        cisd_one_rdm, cisd_two_rdm = unpack_spatial_rdm(
            cisd_one_rdm_a, cisd_one_rdm_b, cisd_two_rdm_aa,
            cisd_two_rdm_ab, cisd_two_rdm_bb)

        # Store 1-RDM in molecule file, 2-RDM separately in other file.
        molecule.cisd_one_rdm = cisd_one_rdm
        molecule.cisd_two_rdm = cisd_two_rdm
        molecule.save()"""


# Perform exact diagonalization.
if False:
    set qc_module detci
    try:
        fci_energy, fci_wavefunction = energy('fci', ref_wfn=scf_wfn, return_wfn=True)
        if True:
            print('FCI energy for {} ({} electrons) is {}.'.format(
                molecule.name, molecule.n_electrons, fci_energy))
    except:
        if True:
            print('WARNING: FCI calculation failed.')
        else:
            raise
    else:
        # For the functions below, "a" and "b" refer to "up and "down" spins.
        molecule.fci_energy = fci_energy

        # Get 1-RDM from FCI calculation.
        """fci_one_rdm_a = numpy.array(fci_wavefunction.get_opdm(
            0, 0, 'A', True)).reshape(molecule.n_orbitals, molecule.n_orbitals)
        fci_one_rdm_b = numpy.array(fci_wavefunction.get_opdm(
            0, 0, 'B', True)).reshape(molecule.n_orbitals, molecule.n_orbitals)

        # Get 2-RDM from FCI calculation.
        fci_two_rdm_aa = numpy.array(fci_wavefunction.get_tpdm(
            'AA', False)).reshape(molecule.n_orbitals, molecule.n_orbitals,
                                  molecule.n_orbitals, molecule.n_orbitals)
        fci_two_rdm_ab = numpy.array(fci_wavefunction.get_tpdm(
            'AB', False)).reshape(molecule.n_orbitals, molecule.n_orbitals,
                                  molecule.n_orbitals, molecule.n_orbitals)
        fci_two_rdm_bb = numpy.array(fci_wavefunction.get_tpdm(
            'BB', False)).reshape(molecule.n_orbitals, molecule.n_orbitals,
                                  molecule.n_orbitals, molecule.n_orbitals)

        # Get overall RDMs.
        fci_one_rdm, fci_two_rdm = unpack_spatial_rdm(
            fci_one_rdm_a, fci_one_rdm_b,
            fci_two_rdm_aa, fci_two_rdm_ab, fci_two_rdm_bb)

        # Store 1-RDM in molecule file, 2-RDM separately in other file.
        molecule.fci_one_rdm = fci_one_rdm
        molecule.fci_two_rdm = fci_two_rdm
        molecule.save()"""


# Perform coupled cluster singles and doubles (CCSD) calculation.
if True:
    set qc_module ccenergy
    try:
        ccsd_energy = energy('ccsd',ref_wfn=scf_wfn)
        if True:
            print('CCSD energy for {} ({} electrons) is {}.'.format(
                molecule.name, molecule.n_electrons, ccsd_energy))
    except:
        if True:
            print('WARNING: CCSD calculation failed.')
        else:
            raise
    else:
        molecule.ccsd_energy = ccsd_energy

        # Merge CC amplitudes into molecule by parsing
        psi_filename = outfile_name()
        ccsd_amplitudes = parse_psi4_ccsd_amplitudes(
            2 * molecule.n_orbitals,
            molecule.get_n_alpha_electrons(),
            molecule.get_n_beta_electrons(),
            psi_filename)
        molecule.ccsd_amplitudes = ccsd_amplitudes
        molecule.save()
--------------------------------------------------------------------------
  Python driver attempted to set threads to 8.
  Psi4 was compiled without OpenMP, setting threads to 1.

  Memory set to   7.451 GiB by Python driver.

*** tstart() called on Berts-MacBook-Pro.local
*** at Wed Dec  6 23:13:56 2017

   => Loading Basis Set <=

    Name: DZP
    Role: ORBITAL
    Keyword: BASIS
    atoms 1-2 entry C          line    73 file /anaconda3/share/psi4/basis/dzp.gbs 
    atoms 3-6 entry H          line    16 file /anaconda3/share/psi4/basis/dzp.gbs 


         ---------------------------------------------------------
                                   SCF
            by Justin Turney, Rob Parrish, and Andy Simmonett
                              RHF Reference
                        1 Threads,   7629 MiB Core
         ---------------------------------------------------------

  ==> Geometry <==

    Molecular point group: c1
    Full point group: D2

    Geometry (in Angstrom), charge = 0, multiplicity = 1:

       Center              X                  Y                   Z               Mass       
    ------------   -----------------  -----------------  -----------------  -----------------
           C          0.000000000000     0.000000000000     0.673055000000    12.000000000000
           C          0.000000000000     0.000000000000    -0.673055000000    12.000000000000
           H         -0.253791663255     0.899877359435     1.246807000000     1.007825032070
           H          0.253791663255    -0.899877359435     1.246807000000     1.007825032070
           H          0.253791663255     0.899877359435    -1.246807000000     1.007825032070
           H         -0.253791663255    -0.899877359435    -1.246807000000     1.007825032070

  Running in c1 symmetry.

  Rotational constants: A =      4.78350  B =      0.96891  C =      0.82622 [cm^-1]
  Rotational constants: A = 143405.72603  B =  29047.27887  C =  24769.46928 [MHz]
  Nuclear repulsion =   33.002990194409776

  Charge       = 0
  Multiplicity = 1
  Electrons    = 16
  Nalpha       = 8
  Nbeta        = 8

  ==> Algorithm <==

  SCF Algorithm Type is PK.
  DIIS enabled.
  MOM disabled.
  Fractional occupation disabled.
  Guess Type is SAD.
  Energy threshold   = 1.00e-07
  Density threshold  = 1.00e-07
  Integral threshold = 0.00e+00

  ==> Primary Basis <==

  Basis Set: DZP
    Blend: DZP
    Number of shells: 26
    Number of basis function: 52
    Number of Cartesian functions: 52
    Spherical Harmonics?: false
    Max angular momentum: 2

  ==> Pre-Iterations <==

   -------------------------------------------------------
    Irrep   Nso     Nmo     Nalpha   Nbeta   Ndocc  Nsocc
   -------------------------------------------------------
     A         52      52       0       0       0       0
   -------------------------------------------------------
    Total      52      52       8       8       8       0
   -------------------------------------------------------

  ==> Integral Setup <==

  Using in-core PK algorithm.
   Calculation information:
      Number of atoms:                   6
      Number of AO shells:              26
      Number of primitives:             50
      Number of atomic orbitals:        52
      Number of basis functions:        52

      Integral cutoff                 1.00e-12
      Number of threads:                 1

  Performing in-core PK
  Using 1900262 doubles for integral storage.
  We computed 61763 shell quartets total.
  Whereas there are 61776 unique shell quartets.
  ==> DiskJK: Disk-Based J/K Matrices <==

    J tasked:                  Yes
    K tasked:                  Yes
    wK tasked:                  No
    Memory (MB):              5722
    Schwarz Cutoff:          1E-12

    OpenMP threads:              1
  Minimum eigenvalue in the overlap matrix is 6.3928398654E-03.
  Using Symmetric Orthogonalization.

  SCF Guess: Superposition of Atomic Densities via on-the-fly atomic UHF.

  ==> Iterations <==

                        Total Energy        Delta E     RMS |[F,P]|

   @RHF iter   0:   -69.16288405982326   -6.91629e+01   1.01499e-01 
   @RHF iter   1:   -74.31673510837750   -5.15385e+00   3.99842e-02 
   @RHF iter   2:   -77.18970853795037   -2.87297e+00   2.39835e-02 DIIS/DAMP
   @RHF iter   3:   -78.01582742423821   -8.26119e-01   2.37060e-03 DIIS/DAMP
   @RHF iter   4:   -78.02678970608275   -1.09623e-02   3.95947e-04 SOSCF, nmicro = 4/DAMP
   @RHF iter   5:   -78.02729820044054   -5.08494e-04   2.01893e-06 SOSCF, nmicro = 4/DAMP
   @RHF iter   6:   -78.02729820987892   -9.43838e-09   3.44020e-09 SOSCF, conv/DAMP

  ==> Post-Iterations <==

    Orbital Energies (a.u.)
    -----------------------

    Doubly Occupied:                                                      

       1A    -11.245569     2A    -11.244021     3A     -1.027556  
       4A     -0.788364     5A     -0.630990     6A     -0.582705  
       7A     -0.520690     8A     -0.350147  

    Virtual:                                                              

       9A      0.130087    10A      0.257518    11A      0.296881  
      12A      0.370730    13A      0.373041    14A      0.412819  
      15A      0.445951    16A      0.472364    17A      0.482938  
      18A      0.606883    19A      0.612334    20A      0.670677  
      21A      0.823136    22A      1.021000    23A      1.206204  
      24A      1.211474    25A      1.313899    26A      1.500316  
      27A      1.563650    28A      1.627596    29A      1.629901  
      30A      1.947616    31A      2.054541    32A      2.069565  
      33A      2.109360    34A      2.128589    35A      2.183163  
      36A      2.443374    37A      2.481319    38A      2.483510  
      39A      2.678697    40A      2.746382    41A      2.805105  
      42A      2.931952    43A      2.932203    44A      3.197354  
      45A      3.382956    46A      3.513551    47A      3.556180  
      48A      3.865949    49A      4.222550    50A      4.532262  
      51A     27.628900    52A     27.660458  

    Final Occupation by Irrep:
              A 
    DOCC [     8 ]

  Energy converged.

  @RHF Final Energy:   -78.02729820987892

   => Energetics <=

    Nuclear Repulsion Energy =             33.0029901944097759
    One-Electron Energy =                -169.2804934511499084
    Two-Electron Energy =                  58.2502050468612254
    DFT Exchange-Correlation Energy =       0.0000000000000000
    Empirical Dispersion Energy =           0.0000000000000000
    PCM Polarization Energy =               0.0000000000000000
    EFP Energy =                            0.0000000000000000
    Total Energy =                        -78.0272982098789214



Properties will be evaluated at   0.000000,   0.000000,   0.000000 Bohr

Properties computed using the SCF density matrix

  Nuclear Dipole Moment: (a.u.)
     X:     0.0000      Y:     0.0000      Z:     0.0000

  Electronic Dipole Moment: (a.u.)
     X:    -0.0000      Y:    -0.0000      Z:    -0.0000

  Dipole Moment: (a.u.)
     X:    -0.0000      Y:    -0.0000      Z:    -0.0000     Total:     0.0000

  Dipole Moment: (Debye)
     X:    -0.0000      Y:    -0.0000      Z:    -0.0000     Total:     0.0000


*** tstop() called on Berts-MacBook-Pro.local at Wed Dec  6 23:13:56 2017
Module time:
	user time   =       0.39 seconds =       0.01 minutes
	system time =       0.02 seconds =       0.00 minutes
	total time  =          0 seconds =       0.00 minutes
Total time:
	user time   =       0.39 seconds =       0.01 minutes
	system time =       0.02 seconds =       0.00 minutes
	total time  =          0 seconds =       0.00 minutes

*** tstart() called on Berts-MacBook-Pro.local
*** at Wed Dec  6 23:14:00 2017


  //>>>>>>>>>>>>>>>>>>>>>>>>>>>>>>>>>>>//
  //               DFMP2               //
  //<<<<<<<<<<<<<<<<<<<<<<<<<<<<<<<<<<<//

   => Loading Basis Set <=

    Name: (DZP AUX)
    Role: RIFIT
    Keyword: DF_BASIS_MP2
    atoms 1-2 entry C          line   269 file /anaconda3/share/psi4/basis/def2-qzvpp-ri.gbs 
    atoms 3-6 entry H          line    23 file /anaconda3/share/psi4/basis/def2-qzvpp-ri.gbs 

	 --------------------------------------------------------
	                          DF-MP2                         
	      2nd-Order Density-Fitted Moller-Plesset Theory     
	              RMP2 Wavefunction,   1 Threads             
	                                                         
	        Rob Parrish, Justin Turney, Andy Simmonett,      
	           Ed Hohenstein, and C. David Sherrill          
	 --------------------------------------------------------

   => Auxiliary Basis Set <=

  Basis Set: (DZP AUX)
    Blend: DEF2-QZVPP-RI
    Number of shells: 130
    Number of basis function: 506
    Number of Cartesian functions: 666
    Spherical Harmonics?: true
    Max angular momentum: 5

	 --------------------------------------------------------
	                 NBF =    52, NAUX =   506
	 --------------------------------------------------------
	   CLASS    FOCC     OCC    AOCC    AVIR     VIR    FVIR
	   PAIRS       0       8       8      44      44       0
	 --------------------------------------------------------

	-----------------------------------------------------------
	 ==================> DF-MP2 Energies <==================== 
	-----------------------------------------------------------
	 Reference Energy          =     -78.0272982098789214 [Eh]
	 Singles Energy            =      -0.0000000000000000 [Eh]
	 Same-Spin Energy          =      -0.0605284275869171 [Eh]
	 Opposite-Spin Energy      =      -0.2448059612761930 [Eh]
	 Correlation Energy        =      -0.3053343888631102 [Eh]
	 Total Energy              =     -78.3326325987420375 [Eh]
	-----------------------------------------------------------
	 ================> DF-SCS-MP2 Energies <================== 
	-----------------------------------------------------------
	 SCS Same-Spin Scale       =       0.3333333333333333 [-]
	 SCS Opposite-Spin Scale   =       1.2000000000000000 [-]
	 SCS Same-Spin Energy      =      -0.0201761425289724 [Eh]
	 SCS Opposite-Spin Energy  =      -0.2937671535314316 [Eh]
	 SCS Correlation Energy    =      -0.3139432960604039 [Eh]
	 SCS Total Energy          =     -78.3412415059393226 [Eh]
	-----------------------------------------------------------


*** tstop() called on Berts-MacBook-Pro.local at Wed Dec  6 23:14:01 2017
Module time:
	user time   =       0.28 seconds =       0.00 minutes
	system time =       0.04 seconds =       0.00 minutes
	total time  =          1 seconds =       0.02 minutes
Total time:
	user time   =       4.63 seconds =       0.08 minutes
	system time =       0.20 seconds =       0.00 minutes
	total time  =          5 seconds =       0.08 minutes
 MINTS: Wrapper to libmints.
   by Justin Turney

   Calculation information:
      Number of threads:                 1
      Number of atoms:                   6
      Number of AO shells:              26
      Number of SO shells:              26
      Number of primitives:             50
      Number of atomic orbitals:        52
      Number of basis functions:        52

      Number of irreps:                  1
      Integral cutoff                 0.00e+00
      Number of functions per irrep: [  52 ]

 OEINTS: Overlap, kinetic, potential, dipole, and quadrupole integrals
         stored in file 35.

      Computing two-electron integrals...done
      Computed 838255 non-zero two-electron integrals.
        Stored in file 33.


         ---------------------------------------------------------
                          Configuration Interaction
                            (a 'D E T C I' module)

                 C. David Sherrill, Daniel G. A. Smith, and
                              Matt L. Leininger
         ---------------------------------------------------------


   ==> Parameters <==

    EX LEVEL       =        2      H0 BLOCKSIZE  =     1000
    VAL EX LEVEL   =        0      H0 GUESS SIZE =     1000
    H0COUPLINGSIZE =        0      H0 COUPLING   =       NO
    MAXITER        =       24      NUM PRINT     =       20
    NUM ROOTS      =        1      ICORE         =        1
    PRINT LVL      =        1      FCI           =       NO
    R CONV         = 1.00e-07      MIXED         =      YES
    E CONV         = 1.00e-07      MIXED4        =      YES
    R4S            =       NO      REPL OTF      =       NO
    DIAG METHOD    =      SEM      FOLLOW ROOT   =        0
    PRECONDITIONER = DAVIDSON      UPDATE        = DAVIDSON
    S              =   0.0000      Ms0           =      YES
    GUESS VECTOR   =  H0BLOCK      OPENTYPE      =     NONE
    COLLAPSE SIZE  =        1      HD AVG        = EVANGELISTI
    MAX NUM VECS   =       25      REF SYM       =     AUTO
    IOPEN        =       NO

    EX ALLOW       =  1  1 
    STATE AVERAGE  =  0(1.00) 

   ==> CI Orbital and Space information <==

    RAS1 LVL      =        7      A RAS3 MAX    =        2
    RAS1 MIN      =       14      B RAS3 MAX    =        2
    A RAS1 LVL    =        7      RAS4 LVL      =       52
    A RAS1 MIN    =        6      A RAS4 MAX    =        0
    A RAS1 MAX    =        8      B RAS4 MAX    =        0
    B RAS1 LVL    =        7      RAS4 MAX      =        0
    B RAS1 MIN    =        6      A RAS34 MAX   =        2
    B RAS1 MAX    =        8      B RAS34 MAX   =        2
    RAS3 LVL      =        8      RAS34 MAX     =        2
    RAS3 MAX      =        2
   ------------------------------------
               Space    Total     A
   ------------------------------------
                 Nso       52    52
                 Nmo       52    52
               Ndocc        8     8
               Nsocc        0     0
   ------------------------------------
              CI Spaces
   ------------------------------------
        Dropped DOCC        0     0
                RAS1        8     8
                RAS2        0     0
                RAS3       44    44
                RAS4        0     0
      Active (total)       52    52
        Dropped UOCC        0     0
   ------------------------------------

   ==> Setting up CI strings <==

    There are 26841 alpha and 26841 beta strings
    The CI space requires 177585 (1.78E+05) determinants and 6 blocks

   ==> Transforming CI integrals <==

	Presorting SO-basis two-electron integrals.
	Sorting File: SO Ints (nn|nn) nbuckets = 1
	Transforming the one-electron integrals and constructing Fock matrices
	Starting first half-transformation.
	Sorting half-transformed integrals.
	First half integral transformation complete.
	Starting second half-transformation.
	Two-electron integral transformation complete.

   ==> Starting CI iterations <==

    H0 Block Eigenvalue = -78.06259093

    Simultaneous Expansion Method (Block Davidson Method)
    Using 1 initial trial vectors

     Iter   Root       Total Energy       Delta E      C RMS

   @CI  0:     0    -78.062590934645   -1.1107E+02   1.5368E+00  
   @CI  1:     0    -78.324938860945   -2.6235E-01   1.5421E-01  
   @CI  2:     0    -78.335288777033   -1.0350E-02   4.6742E-02  
   @CI  3:     0    -78.336056402165   -7.6763E-04   1.0976E-02  
   @CI  4:     0    -78.336101953986   -4.5552E-05   3.1255E-03  
   @CI  5:     0    -78.336104847603   -2.8936E-06   7.5899E-04  
   @CI  6:     0    -78.336105041114   -1.9351E-07   2.1500E-04  
   @CI  7:     0    -78.336105055563   -1.4449E-08   5.9193E-05  
   @CI  8:     0    -78.336105056642   -1.0795E-09   1.4949E-05  
   @CI  9:     0    -78.336105056710   -6.8042E-11   3.7130E-06  
   @CI 10:     0    -78.336105056714   -3.4390E-12   7.1495E-07  
    Warning: Norm of correction (root 0) is < 1.0E-13
   @CI 11:     0    -78.336105056714   -1.8474E-13   1.6466E-07  
    Warning: Norm of correction (root 0) is < 1.0E-13
   @CI 12:     0    -78.336105056714   0.0000E+00   3.4593E-08 c

   ==> Energetics <==

    SCF energy =            0.000000000000000
    Total CI energy =     -78.336105056713720

   ==> CISD root 0 information <==

    CISD Root 0 energy =   -78.336105056713720

   The 20 most important determinants:

    *   1    0.950484  (    0,    0)  1AX 2AX 3AX 4AX 5AX 6AX 7AX 8AX 
    *   2   -0.091915  (    1,    1)  1AX 2AX 3AX 4AX 5AX 6AX 7AX 9AX 
    *   3   -0.040760  (    1,   73)  1AX 2AX 3AX 4AX 5AX 6AX 7AX 9AA 18AB 
    *   4   -0.040760  (   73,    1)  1AX 2AX 3AX 4AX 5AX 6AX 7AX 9AB 18AA 
    *   5   -0.027053  (   99,   99)  1AX 2AX 3AX 4AX 5AX 7AX 8AX 21AX 
    *   6   -0.025489  (   73,   73)  1AX 2AX 3AX 4AX 5AX 6AX 7AX 18AX 
    *   7   -0.023982  (    1,   99)  1AX 2AX 3AX 4AX 5AX 6AA 7AX 8AB 9AA 21AB 
    *   8   -0.023982  (   99,    1)  1AX 2AX 3AX 4AX 5AX 6AB 7AX 8AA 9AB 21AA 
    *   9    0.021923  (    1,    2)  1AX 2AX 3AX 4AX 5AX 6AX 7AA 8AB 9AX 
    *  10    0.021923  (    2,    1)  1AX 2AX 3AX 4AX 5AX 6AX 7AB 8AA 9AX 
    *  11   -0.020504  (    0, 2202)  1AX 2AX 3AX 4AX 5AX 6AA 7AX 8AA 9AB 21AB 
    *  12   -0.020504  ( 2202,    0)  1AX 2AX 3AX 4AX 5AX 6AB 7AX 8AB 9AA 21AA 
    *  13   -0.020034  (   28,   28)  1AX 2AX 3AX 4AX 6AX 7AX 8AX 12AX 
    *  14   -0.018898  (   65,   65)  1AX 2AX 3AX 4AX 5AX 6AX 7AX 17AX 
    *  15   -0.018567  (   73,   99)  1AX 2AX 3AX 4AX 5AX 6AA 7AX 8AB 18AA 21AB 
    *  16   -0.018567  (   99,   73)  1AX 2AX 3AX 4AX 5AX 6AB 7AX 8AA 18AB 21AA 
    *  17   -0.018525  (    5,    5)  1AX 2AX 3AX 5AX 6AX 7AX 8AX 9AX 
    *  18   -0.018249  (   26,   26)  1AX 2AX 3AX 4AX 5AX 6AX 8AX 12AX 
    *  19   -0.017996  (   43,   43)  1AX 2AX 3AX 4AX 5AX 7AX 8AX 14AX 
    *  20   -0.015316  (   89,   89)  1AX 2AX 3AX 4AX 5AX 6AX 7AX 20AX 

		 "A good bug is a dead bug" 

			 - Starship Troopers

		 "I didn't write FORTRAN.  That's the problem."

			 - Edward Valeev
 MINTS: Wrapper to libmints.
   by Justin Turney

   Calculation information:
      Number of threads:                 1
      Number of atoms:                   6
      Number of AO shells:              26
      Number of SO shells:              26
      Number of primitives:             50
      Number of atomic orbitals:        52
      Number of basis functions:        52

      Number of irreps:                  1
      Integral cutoff                 0.00e+00
      Number of functions per irrep: [  52 ]

 OEINTS: Overlap, kinetic, potential, dipole, and quadrupole integrals
         stored in file 35.

      Computing two-electron integrals...done
      Computed 838255 non-zero two-electron integrals.
        Stored in file 33.


*** tstart() called on Berts-MacBook-Pro.local
*** at Wed Dec  6 23:14:52 2017


	Wfn Parameters:
	--------------------
	Wavefunction         = CCSD
	Number of irreps     = 1
	Number of MOs        = 52
	Number of active MOs = 52
	AO-Basis             = NONE
	Semicanonical        = false
	Reference            = RHF
	Print Level          = 1

	IRREP	# MOs	# FZDC	# DOCC	# SOCC	# VIRT	# FZVR
	-----	-----	------	------	------	------	------
	 A	   52	    0	    8	    0	    44	    0
	Transforming integrals...
	IWL integrals will be deleted.
	(OO|OO)...
	Presorting SO-basis two-electron integrals.
	Sorting File: SO Ints (nn|nn) nbuckets = 1
	Transforming the one-electron integrals and constructing Fock matrices
	Starting first half-transformation.
	Sorting half-transformed integrals.
	First half integral transformation complete.
	Starting second half-transformation.
	Two-electron integral transformation complete.
	(OO|OV)...
	Starting second half-transformation.
	Two-electron integral transformation complete.
	(OO|VV)...
	Starting second half-transformation.
	Two-electron integral transformation complete.
	(OV|OO)...
	Starting first half-transformation.
	Sorting half-transformed integrals.
	First half integral transformation complete.
	Starting second half-transformation.
	Two-electron integral transformation complete.
	(OV|OV)...
	Starting second half-transformation.
	Two-electron integral transformation complete.
	(OV|VV)...
	Starting second half-transformation.
	Two-electron integral transformation complete.
	(VV|OO)...
	Starting first half-transformation.
	Sorting half-transformed integrals.
	First half integral transformation complete.
	Starting second half-transformation.
	Two-electron integral transformation complete.
	(VV|OV)...
	Starting second half-transformation.
	Two-electron integral transformation complete.
	(VV|VV)...
	Starting second half-transformation.
	Two-electron integral transformation complete.
	Frozen core energy     =      0.00000000000000

	Size of irrep 0 of <ab|cd> integrals:      3.748 (MW) /     29.985 (MB)
	Total:                                     3.748 (MW) /     29.985 (MB)

	Size of irrep 0 of <ia|bc> integrals:      0.681 (MW) /      5.452 (MB)
	Total:                                     0.681 (MW) /      5.452 (MB)

	Size of irrep 0 of tijab amplitudes:       0.124 (MW) /      0.991 (MB)
	Total:                                     0.124 (MW) /      0.991 (MB)

	Nuclear Rep. energy          =     33.00299019440978
	SCF energy                   =    -78.02729820987892
	One-electron energy          =   -169.28049356305988
	Two-electron energy          =     58.25020515877123
	Reference energy             =    -78.02729820987888

*** tstop() called on Berts-MacBook-Pro.local at Wed Dec  6 23:14:52 2017
Module time:
	user time   =       0.28 seconds =       0.00 minutes
	system time =       0.31 seconds =       0.01 minutes
	total time  =          0 seconds =       0.00 minutes
Total time:
	user time   =      55.36 seconds =       0.92 minutes
	system time =       1.05 seconds =       0.02 minutes
	total time  =         56 seconds =       0.93 minutes

*** tstart() called on Berts-MacBook-Pro.local
*** at Wed Dec  6 23:14:52 2017

            **************************
            *                        *
            *        CCENERGY        *
            *                        *
            **************************

    Nuclear Rep. energy (wfn)     =   33.002990194409776
    SCF energy          (wfn)     =  -78.027298209878921
    Reference energy    (file100) =  -78.027298209878879

    Input parameters:
    -----------------
    Wave function   =     CCSD
    Reference wfn   =     RHF
    Brueckner       =     No
    Memory (Mbytes) =     8000.0
    Maxiter         =   1000000
    R_Convergence   =     1.0e-07
    E_Convergence   =     1.0e-07
    Restart         =     Yes
    DIIS            =     Yes
    AO Basis        =     NONE
    ABCD            =     NEW
    Cache Level     =     2
    Cache Type      =     LOW
    Print Level     =     1
    Num. of threads =     1
    # Amps to Print =     1000000
    Print MP2 Amps? =     No
    Analyze T2 Amps =     No
    Print Pair Ener =     No
    Local CC        =     No
    SCS-MP2         =     False
    SCSN-MP2        =     False
    SCS-CCSD        =     False

MP2 correlation energy -0.3053421757499220
                Solving CC Amplitude Equations
                ------------------------------
  Iter             Energy              RMS        T1Diag      D1Diag    New D1Diag    D2Diag
  ----     ---------------------    ---------   ----------  ----------  ----------   --------
     0        -0.305342175749922    0.000e+00    0.000000    0.000000    0.000000    0.159666
     1        -0.325395112667244    5.450e-02    0.006776    0.023983    0.023983    0.176713
     2        -0.335560617954438    2.338e-02    0.008411    0.030597    0.030597    0.196376
     3        -0.336855836866253    8.436e-03    0.009563    0.035245    0.035245    0.205053
     4        -0.336930449557979    2.929e-03    0.009727    0.036089    0.036089    0.208811
     5        -0.336952127074778    6.277e-04    0.009728    0.036125    0.036125    0.209347
     6        -0.336950362891684    1.700e-04    0.009721    0.036105    0.036105    0.209373
     7        -0.336949976133939    5.537e-05    0.009718    0.036095    0.036095    0.209381
     8        -0.336949831443555    1.713e-05    0.009717    0.036094    0.036094    0.209380
     9        -0.336949673746636    4.436e-06    0.009717    0.036094    0.036094    0.209379
    10        -0.336949802051460    1.242e-06    0.009717    0.036094    0.036094    0.209379
    11        -0.336949808297066    3.465e-07    0.009717    0.036094    0.036094    0.209379
    12        -0.336949817003585    8.579e-08    0.009717    0.036094    0.036094    0.209379

    Iterations converged.


    Largest TIA Amplitudes:
              7   8         0.0250186880
              7   7         0.0176256185
              7  10         0.0139824563
              7  20         0.0097530574
              4   3         0.0056687844
              6  10         0.0047956980
              5  21         0.0044856537
              3  13         0.0044132699
              6   7         0.0042801025
              7  28         0.0040300995
              5   5         0.0037071538
              7  17         0.0036218454
              4  22        -0.0032459356
              6  33         0.0032213866
              3  25         0.0029103201
              6   8         0.0028792582
              4  15         0.0027826707
              2  24         0.0027293957
              2   2        -0.0026997008
              2  40         0.0026430157
              5  34        -0.0022077291
              2  21         0.0020885650
              3  41         0.0018541104
              3  29        -0.0018055047
              4  37         0.0017368345
              6  23        -0.0016508295
              6  20         0.0015829425
              5  19         0.0015254200
              3  35         0.0015123113
              2   5         0.0014968555
              2  11         0.0014132256
              4   0        -0.0014039353
              3  30        -0.0013927036
              6  17         0.0013683737
              7  33        -0.0013659337
              5   2        -0.0013167553
              3  38         0.0012524305
              5  14        -0.0012268450
              4  27         0.0011870705
              5  36        -0.0011732485
              4  32         0.0011667327
              4   9        -0.0011392308
              2  36         0.0010544637
              7  23         0.0010440341
              3   1        -0.0008841741
              3  12         0.0008662077
              5  11        -0.0008308214
              2  31        -0.0008211601
              2  14         0.0007798371
              3   4         0.0006866073
              6  39         0.0006750608
              3  16         0.0005968536
              7  39         0.0005875349
              1  13        -0.0005568458
              5  40         0.0005093079
              0  40        -0.0004590256
              4   6         0.0004082409
              1  41        -0.0003728741
              2  34        -0.0003719269
              0  11        -0.0003302290
              1   1        -0.0003285056
              0  14        -0.0002933415
              1  12        -0.0002646860
              0   2        -0.0002460051
              6  28         0.0002437330
              4  26         0.0002236047
              1  35        -0.0002235201
              1   4        -0.0001772926
              1  38        -0.0001618940
              0  36        -0.0001613792
              0   5        -0.0001390280
              2  42         0.0001223453
              1  25        -0.0001217639
              0  21        -0.0001070826
              1  29        -0.0001010577
              1  43         0.0000973463
              0  42         0.0000967345
              5  24        -0.0000915652
              3  43         0.0000908485
              3  18        -0.0000770430
              1  16        -0.0000713549
              5  31        -0.0000664134
              0  34        -0.0000422725
              1  30        -0.0000327239
              0  24        -0.0000272510
              5  42         0.0000182742
              1  18        -0.0000116764
              0  31         0.0000018461
              2  19         0.0000010734
              0  19         0.0000004153

    Largest TIjAb Amplitudes:
      7   7   0   0        -0.1345375283
      7   7   0   9        -0.0549946549
      7   7   9   0        -0.0549946549
      5   5  12  12        -0.0311550492
      7   7   9   9        -0.0304548241
      6   7   0   0        -0.0286444611
      7   6   0   0        -0.0286444611
      5   7  12   0        -0.0277441006
      7   5   0  12        -0.0277441006
      4   4   3   3        -0.0242719990
      6   6   3   3        -0.0230609393
      7   7   8   8        -0.0219080025
      3   3   0   0        -0.0217019115
      5   5   5   5        -0.0216143441
      5   7  12   9        -0.0215107696
      7   5   9  12        -0.0215107696
      6   6   4   4        -0.0186094389
      6   6   0   0        -0.0183063888
      4   6   3  10         0.0181368119
      6   4  10   3         0.0181368119
      3   7   2   0        -0.0180504488
      7   3   0   2        -0.0180504488
      6   6   7   7        -0.0175804468
      7   7  11  11        -0.0173645486
      2   7  12   0        -0.0170852385
      7   2   0  12        -0.0170852385
      5   7   5   8         0.0164804747
      7   5   8   5         0.0164804747
      5   5   3   3        -0.0164687457
      4   6   2   4        -0.0164136674
      6   4   4   2        -0.0164136674
      4   4   2   2        -0.0161351342
      2   7   1   0        -0.0160330721
      7   2   0   1        -0.0160330721
      4   5   3   5         0.0158228692
      5   4   5   3         0.0158228692
      2   7   0  12        -0.0157595068
      7   2  12   0        -0.0157595068
      3   7   0   2        -0.0157594749
      7   3   2   0        -0.0157594749
      4   4   6   6        -0.0154911424
      6   7   7   8        -0.0153687130
      7   6   8   7        -0.0153687130
      6   7   0   9        -0.0151290758
      7   6   9   0        -0.0151290758
      4   6   6   7        -0.0148717657
      6   4   7   6        -0.0148717657
      6   7   0   3        -0.0147730679
      7   6   3   0        -0.0147730679
      2   2  12  12        -0.0147338511
      5   6   3   4         0.0144807098
      6   5   4   3         0.0144807098
      5   6   5   7         0.0144731479
      6   5   7   5         0.0144731479
      4   7   6   8        -0.0141204505
      7   4   8   6        -0.0141204505
      6   7   9   0        -0.0138083663
      7   6   0   9        -0.0138083663
      6   6  10  10        -0.0137118970
      3   5   1   5         0.0136865102
      5   3   5   1         0.0136865102
      4   7   3   8        -0.0136691523
      7   4   8   3        -0.0136691523
      4   6   3   7        -0.0136234528
      6   4   7   3        -0.0136234528
      6   7   6   0        -0.0134735669
      7   6   0   6        -0.0134735669
      2   7   0   4        -0.0133591984
      7   2   4   0        -0.0133591984
      4   6  10   3         0.0132279531
      6   4   3  10         0.0132279531
      6   6   2   2        -0.0130974029
      2   7   1   9        -0.0130369538
      7   2   9   1        -0.0130369538
      2   7  12   9        -0.0129005557
      7   2   9  12        -0.0129005557
      4   7  10   0         0.0128000010
      7   4   0  10         0.0128000010
      3   5   2  12        -0.0127277181
      5   3  12   2        -0.0127277181
      2   7  13   9        -0.0126692170
      7   2   9  13        -0.0126692170
      2   7   0   1        -0.0126257380
      7   2   1   0        -0.0126257380
      3   3  12  12        -0.0125763831
      5   6  12   6        -0.0125495539
      6   5   6  12        -0.0125495539
      3   7   0  11         0.0124770312
      7   3  11   0         0.0124770312
      4   4  10  10        -0.0124324075
      3   7   1   8        -0.0124253120
      7   3   8   1        -0.0124253120
      5   6   5  10        -0.0124066578
      6   5  10   5        -0.0124066578
      3   6   0  19         0.0122210253
      6   3  19   0         0.0122210253
      2   5  13  12        -0.0121033292
      5   2  12  13        -0.0121033292
      3   3   2   2        -0.0120174967
      3   4   1   3        -0.0119422103
      4   3   3   1        -0.0119422103
      3   6   1   7        -0.0119299690
      6   3   7   1        -0.0119299690
      5   5  20  20        -0.0118815508
      4   6   4   2        -0.0118021612
      6   4   2   4        -0.0118021612
      4   5   6   5         0.0117362398
      5   4   5   6         0.0117362398
      4   6   3  17         0.0116869276
      6   4  17   3         0.0116869276
      6   6  14  14        -0.0116800486
      3   7   0   5        -0.0116380932
      7   3   5   0        -0.0116380932
      4   4   4   4        -0.0116071901
      2   7  13   0        -0.0115615450
      7   2   0  13        -0.0115615450
      7   7  12  12        -0.0115612686
      6   6   7  10         0.0115494734
      6   6  10   7         0.0115494734
      3   3   1   1        -0.0114901186
      4   7   7   0        -0.0114165963
      7   4   0   7        -0.0114165963
      3   4   0  18         0.0113573225
      4   3  18   0         0.0113573225
      3   5   0  20         0.0113568563
      5   3  20   0         0.0113568563
      2   7   4   0        -0.0113264163
      7   2   0   4        -0.0113264163
      3   7   2   9        -0.0112990261
      7   3   9   2        -0.0112990261
      6   7   6   9        -0.0112856958
      7   6   9   6        -0.0112856958
      4   5   2   3         0.0112443314
      5   4   3   2         0.0112443314
      4   5   7  12        -0.0112019913
      5   4  12   7        -0.0112019913
      5   5   0   0        -0.0111951449
      3   7   5   0        -0.0111035914
      7   3   0   5        -0.0111035914
      4   7   7   9        -0.0110248601
      7   4   9   7        -0.0110248601
      5   5   2   2        -0.0109859668
      4   7  10   9         0.0109153329
      7   4   9  10         0.0109153329
      6   6  16  16        -0.0108904586
      4   4   3  15        -0.0108037665
      4   4  15   3        -0.0108037665
      2   2   0   0        -0.0107371214
      3   6   1  10         0.0107346481
      6   3  10   1         0.0107346481
      3   3  14  14        -0.0105813018
      5   5  15  15        -0.0105707744
      4   6  14   4        -0.0105537045
      6   4   4  14        -0.0105537045
      3   7   5   9        -0.0105532025
      7   3   9   5        -0.0105532025
      3   7   0  14        -0.0104345749
      7   3  14   0        -0.0104345749
      3   3   4   4        -0.0103265811
      4   4  18  18        -0.0102365925
      6   6   6   6        -0.0102277919
      3   3   5   5        -0.0102095834
      3   7   0  24        -0.0102019560
      7   3  24   0        -0.0102019560
      3   7  13   8        -0.0101598304
      7   3   8  13        -0.0101598304
      6   7  10   8         0.0101568304
      7   6   8  10         0.0101568304
      3   5   4   2         0.0101320260
      5   3   2   4         0.0101320260
      6   7   9   9        -0.0101226745
      7   6   9   9        -0.0101226745
      4   6   7   6        -0.0101207011
      6   4   6   7        -0.0101207011
      5   6  12   0        -0.0101143408
      6   5   0  12        -0.0101143408
      4   4  15  15        -0.0100761443
      5   5   3  15        -0.0100656119
      5   5  15   3        -0.0100656119
      3   5  13   5         0.0100314172
      5   3   5  13         0.0100314172
      6   6  19  19        -0.0100181923
      4   4   7   7        -0.0100024574
      6   6  15  15        -0.0099188068
      3   5   2   4         0.0098750682
      5   3   4   2         0.0098750682
      4   7   0  10         0.0098641781
      7   4  10   0         0.0098641781
      3   4  13   3        -0.0098462529
      4   3   3  13        -0.0098462529
      2   5   1  12        -0.0098334575
      5   2  12   1        -0.0098334575
      4   6  18  19        -0.0097504385
      6   4  19  18        -0.0097504385
      4   6  14  16        -0.0097445418
      6   4  16  14        -0.0097445418
      4   4  14  14        -0.0097427150
      5   7   0   4         0.0097275334
      7   5   4   0         0.0097275334
      7   7   3   3        -0.0096757813
      4   6   4  14        -0.0096711916
      6   4  14   4        -0.0096711916
      2   2   3   3        -0.0096225956
      4   6  17   3         0.0095634399
      6   4   3  17         0.0095634399
      4   6  16  14        -0.0095032538
      6   4  14  16        -0.0095032538
      7   7   0   6         0.0095006752
      7   7   6   0         0.0095006752
      4   6  15  17         0.0094294825
      6   4  17  15         0.0094294825
      6   6  17  17        -0.0094211899
      6   6   3  15        -0.0093964331
      6   6  15   3        -0.0093964331
      3   5  12   2        -0.0093713866
      5   3   2  12        -0.0093713866
      2   7  11   8        -0.0093213414
      7   2   8  11        -0.0093213414
      5   7   4   0         0.0092523844
      7   5   0   4         0.0092523844
      2   5  11   5         0.0092452318
      5   2   5  11         0.0092452318
      5   6   3  16         0.0092430290
      6   5  16   3         0.0092430290
      3   5   5  12        -0.0092294891
      5   3  12   5        -0.0092294891
      6   6   4  16        -0.0092025403
      6   6  16   4        -0.0092025403
      2   5  12  12        -0.0091702242
      5   2  12  12        -0.0091702242
      3   5  11  12        -0.0091687178
      5   3  12  11        -0.0091687178
      4   4   7  10         0.0091547260
      4   4  10   7         0.0091547260
      3   4   1   6        -0.0090926104
      4   3   6   1        -0.0090926104
      4   4  19  19        -0.0090728510
      3   3   2  14        -0.0090616294
      3   3  14   2        -0.0090616294
      4   5  14   3         0.0090233971
      5   4   3  14         0.0090233971
      3   6  13   7        -0.0090065134
      6   3   7  13        -0.0090065134
      2   7   9  12        -0.0090031681
      7   2  12   9        -0.0090031681
      2   2  13  13        -0.0089875799
      5   6  15  16         0.0089430585
      6   5  16  15         0.0089430585
      6   7   3   3         0.0089226127
      7   6   3   3         0.0089226127
      3   3   0   9        -0.0089029789
      3   3   9   0        -0.0089029789
      7   7  18  18        -0.0088986413
      6   6  18  18        -0.0088716588
      5   5   4   4        -0.0088295862
      7   7  20  20        -0.0088230794
      4   4   3   6        -0.0087686307
      4   4   6   3        -0.0087686307
      2   7   0  16        -0.0087676491
      7   2  16   0        -0.0087676491
      4   4  16  16        -0.0086643908
      3   6   3   2        -0.0086598891
      6   3   2   3        -0.0086598891
      4   6   6  10         0.0086530574
      6   4  10   6         0.0086530574
      3   7  14   0        -0.0086501304
      7   3   0  14        -0.0086501304
      2   4   0  19         0.0086476979
      4   2  19   0         0.0086476979
      2   4  11   6        -0.0085667148
      4   2   6  11        -0.0085667148
      6   6   2  14        -0.0085418959
      6   6  14   2        -0.0085418959
      4   5  18  20        -0.0084617181
      5   4  20  18        -0.0084617181
      7   7   8  10        -0.0084501256
      7   7  10   8        -0.0084501256
      3   3   3   3        -0.0084384421
      2   6  11   7        -0.0083932411
      6   2   7  11        -0.0083932411
      4   5  10  12         0.0083760706
      5   4  12  10         0.0083760706
      2   2  12  13        -0.0083697328
      2   2  13  12        -0.0083697328
      4   7   3  20         0.0083472266
      7   4  20   3         0.0083472266
      2   2   0   9        -0.0083155661
      2   2   9   0        -0.0083155661
      4   4   2  14        -0.0081779515
      4   4  14   2        -0.0081779515
      3   6  13  10         0.0081640588
      6   3  10  13         0.0081640588
      2   7   9   1        -0.0081634371
      7   2   1   9        -0.0081634371
      3   4   5  10         0.0080896574
      4   3  10   5         0.0080896574
      3   6   5   3        -0.0080619214
      6   3   3   5        -0.0080619214
      3   5   4  14         0.0080302790
      5   3  14   4         0.0080302790
      4   4   0   0        -0.0080130029
      2   2   9   9        -0.0079611660
      3   5  14   4         0.0079481073
      5   3   4  14         0.0079481073
      5   7   5  10         0.0079403964
      7   5  10   5         0.0079403964
      5   7   3  18         0.0079349274
      7   5  18   3         0.0079349274
      5   5   4  12         0.0079324385
      5   5  12   4         0.0079324385
      2   2  11  11        -0.0079308769
      7   7   0   3        -0.0079299188
      7   7   3   0        -0.0079299188
      2   4  13  10         0.0078936779
      4   2  10  13         0.0078936779
      4   5   3  21         0.0078308056
      5   4  21   3         0.0078308056
      7   7   1   1        -0.0078286441
      3   6   3  14        -0.0078263513
      6   3  14   3        -0.0078263513
      7   7  10  10        -0.0077880536
      5   6  20  19        -0.0077802173
      6   5  19  20        -0.0077802173
      2   6   0  18         0.0077759724
      6   2  18   0         0.0077759724
      3   6  15  14        -0.0077649917
      6   3  14  15        -0.0077649917
      3   3  13  13        -0.0077635856
      4   6  17  15         0.0077617319
      6   4  15  17         0.0077617319
      3   3   1  13        -0.0077596541
      3   3  13   1        -0.0077596541
      4   4  17  17        -0.0077359948
      5   5   1   1        -0.0077346652
      4   6  19  18        -0.0077001593
      6   4  18  19        -0.0077001593
      4   6   7   3        -0.0076808244
      6   4   3   7        -0.0076808244
      4   7   6  10        -0.0076277792
      7   4  10   6        -0.0076277792
      5   6   1   3         0.0075868658
      6   5   3   1         0.0075868658
      4   6  10   6         0.0075733148
      6   4   6  10         0.0075733148
      5   5  14  14        -0.0075617882
      5   7  13   0        -0.0075565645
      7   5   0  13        -0.0075565645
      3   5   5   1         0.0075555697
      5   3   1   5         0.0075555697
      4   5  14  15         0.0075509743
      5   4  15  14         0.0075509743
      3   3  16  16        -0.0075491179
      3   4  13   6        -0.0075303582
      4   3   6  13        -0.0075303582
      3   7   9   2        -0.0075258156
      7   3   2   9        -0.0075258156
      5   6  15   4         0.0075044245
      6   5   4  15         0.0075044245
      2   7   2   8        -0.0074821489
      7   2   8   2        -0.0074821489
      3   4   3   4        -0.0074423431
      4   3   4   3        -0.0074423431
      7   7   6   9         0.0074365084
      7   7   9   6         0.0074365084
      6   6   1   1        -0.0074290168
      5   6  12   9        -0.0073891369
      6   5   9  12        -0.0073891369
      2   2  20  20        -0.0072421560
      3   5   4   5         0.0072279022
      5   3   5   4         0.0072279022
      2   4   1  10         0.0072055576
      4   2  10   1         0.0072055576
      7   7   4   4        -0.0071995566
      6   7   7  10        -0.0071923812
      7   6  10   7        -0.0071923812
      2   4   2   6        -0.0071803454
      4   2   6   2        -0.0071803454
      2   2   3  15        -0.0071742814
      2   2  15   3        -0.0071742814
      5   5   2  14        -0.0071390560
      5   5  14   2        -0.0071390560
      3   3  10  10        -0.0071106489
      5   7  15  18         0.0071036603
      7   5  18  15         0.0071036603
      2   4  13   7        -0.0070992567
      4   2   7  13        -0.0070992567
      7   7  24  24        -0.0070509299
      3   5  14  16         0.0070484283
      5   3  16  14         0.0070484283
      3   3   2   5        -0.0070310773
      3   3   5   2        -0.0070310773
      5   5  21  21        -0.0070294458
      2   2  15  15        -0.0070161696
      3   4   5   7        -0.0070035812
      4   3   7   5        -0.0070035812
      2   5   2   5         0.0069944837
      5   2   5   2         0.0069944837
      2   6  13   3        -0.0069388308
      6   2   3  13        -0.0069388308
      7   7   1  12        -0.0069340886
      7   7  12   1        -0.0069340886
      3   6   2   6        -0.0068816845
      6   3   6   2        -0.0068816845
      3   5  16  14         0.0068713552
      5   3  14  16         0.0068713552
      5   5  11  11        -0.0068654224
      2   3   2   4        -0.0068628514
      3   2   4   2        -0.0068628514
      2   5  12  13        -0.0068435026
      5   2  13  12        -0.0068435026
      3   6  14   3        -0.0068405485
      6   3   3  14        -0.0068405485
      4   4   0   3         0.0068374721
      4   4   3   0         0.0068374721
      3   6  19   0         0.0068192237
      6   3   0  19         0.0068192237
      2   4  12  10         0.0067959288
      4   2  10  12         0.0067959288
      3   7  12  20         0.0067891663
      7   3  20  12         0.0067891663
      4   7   3  10        -0.0067877351
      7   4  10   3        -0.0067877351
      3   6   2  22        -0.0067359284
      6   3  22   2        -0.0067359284
      2   6   3  12        -0.0067117483
      6   2  12   3        -0.0067117483
      5   6  17  14        -0.0067013329
      6   5  14  17        -0.0067013329
      3   7   1  10        -0.0066956419
      7   3  10   1        -0.0066956419
      3   5  14  12        -0.0066942339
      5   3  12  14        -0.0066942339
      2   6   2   7        -0.0066789269
      6   2   7   2        -0.0066789269
      6   7  22   0        -0.0066720525
      7   6   0  22        -0.0066720525
      2   6   3   1        -0.0066513802
      6   2   1   3        -0.0066513802
      5   6   4   3         0.0066201246
      6   5   3   4         0.0066201246
      4   5   4  10        -0.0066178044
      5   4  10   4        -0.0066178044
      3   3  20  20        -0.0066150772
      4   4   4  16        -0.0066136159
      4   4  16   4        -0.0066136159
      6   6  10  17        -0.0065971824
      6   6  17  10        -0.0065971824
      4   5  16  17        -0.0065832023
      5   4  17  16        -0.0065832023
      7   7   2   2        -0.0065657241
      6   6  11  11        -0.0065583794
      4   4  21  21        -0.0065570141
      3   3   9   9        -0.0065498090
      6   7  10  10         0.0065481329
      7   6  10  10         0.0065481329
      2   4   1   7        -0.0065257075
      4   2   7   1        -0.0065257075
      3   6   4  10         0.0065246019
      6   3  10   4         0.0065246019
      3   3   4  16        -0.0065179173
      3   3  16   4        -0.0065179173
      3   4   4   3        -0.0065174940
      4   3   3   4        -0.0065174940
      2   7   9  13        -0.0065057466
      7   2  13   9        -0.0065057466
      3   6   5   6        -0.0065036172
      6   3   6   5        -0.0065036172
      3   4  15  16        -0.0064936800
      4   3  16  15        -0.0064936800
      3   7  14   9        -0.0064863650
      7   3   9  14        -0.0064863650
      3   3  19  19        -0.0064690651
      3   6   4   7        -0.0064663748
      6   3   7   4        -0.0064663748
      2   6  13   6        -0.0064452451
      6   2   6  13        -0.0064452451
      2   2   1  13        -0.0064439301
      2   2  13   1        -0.0064439301
      2   7   4   9        -0.0064348283
      7   2   9   4        -0.0064348283
      6   6  23  23        -0.0064308678
      6   6  21  21        -0.0064073086
      5   7  20  24         0.0064043168
      7   5  24  20         0.0064043168
      3   7  11   9        -0.0063559655
      7   3   9  11        -0.0063559655
      4   4  10  17        -0.0063457676
      4   4  17  10        -0.0063457676
      3   4   4   6        -0.0063440820
      4   3   6   4        -0.0063440820
      3   6   3   5        -0.0063273232
      6   3   5   3        -0.0063273232
      4   6   2  16        -0.0063098194
      6   4  16   2        -0.0063098194
      3   3  15  15        -0.0062992388
      7   7   5  11         0.0062898159
      7   7  11   5         0.0062898159
      2   7   9   4        -0.0062792512
      7   2   4   9        -0.0062792512
      3   6  21   3        -0.0062428785
      6   3   3  21        -0.0062428785
      3   5  20   0         0.0062426545
      5   3   0  20         0.0062426545
      2   7   0  13        -0.0062425729
      7   2  13   0        -0.0062425729
      6   7   3   9        -0.0062337449
      7   6   9   3        -0.0062337449
      4   7  15  20         0.0062307930
      7   4  20  15         0.0062307930
      2   2   1  12        -0.0062227160
      2   2  12   1        -0.0062227160
      3   3  18  18        -0.0062174298
      2   6   3  13        -0.0061914844
      6   2  13   3        -0.0061914844
      5   7   0  16         0.0061805513
      7   5  16   0         0.0061805513
      3   4   2   7        -0.0061777723
      4   3   7   2        -0.0061777723
      5   5   5  21        -0.0061737439
      5   5  21   5        -0.0061737439
      4   5  15  11        -0.0061514899
      5   4  11  15        -0.0061514899
      3   4   0   4         0.0061315414
      4   3   4   0         0.0061315414
      3   5   0  10         0.0061117028
      5   3  10   0         0.0061117028
      5   5  17  17        -0.0061031243
      2   6   1   6        -0.0060926769
      6   2   6   1        -0.0060926769
      3   4  18   0         0.0060787250
      4   3   0  18         0.0060787250
      3   3  11  11        -0.0060636065
      3   4   2  10         0.0060634743
      4   3  10   2         0.0060634743
      3   4   3  13        -0.0060434707
      4   3  13   3        -0.0060434707
      5   6  12  22        -0.0060230328
      6   5  22  12        -0.0060230328
      3   5   9  20         0.0060130549
      5   3  20   9         0.0060130549
      2   5   0  26        -0.0059957928
      5   2  26   0        -0.0059957928
      3   6  11   6        -0.0059886965
      6   3   6  11        -0.0059886965
      4   6  16  11         0.0059866204
      6   4  11  16         0.0059866204
      2   5   2   2         0.0059597554
      5   2   2   2         0.0059597554
      3   6   7   1        -0.0059268357
      6   3   1   7        -0.0059268357
      6   6   4  13        -0.0059256487
      6   6  13   4        -0.0059256487
      2   2   1   1        -0.0059141144
      7   7   5   5        -0.0059133921
      3   3  17  17        -0.0059121521
      2   3   1   5        -0.0059114514
      3   2   5   1        -0.0059114514
      6   6   0   9        -0.0059030767
      6   6   9   0        -0.0059030767
      3   4  17  14         0.0059002890
      4   3  14  17         0.0059002890
      5   7  12   6         0.0058792097
      7   5   6  12         0.0058792097
      3   6  10   1         0.0058760374
      6   3   1  10         0.0058760374
      5   6   2   7         0.0058740742
      6   5   7   2         0.0058740742
      5   7  21  20        -0.0058531151
      7   5  20  21        -0.0058531151
      4   5   6   2         0.0058326969
      5   4   2   6         0.0058326969
      4   6  15  10         0.0058155043
      6   4  10  15         0.0058155043
      3   7   9  24        -0.0058118752
      7   3  24   9        -0.0058118752
      3   6   4  23        -0.0058039537
      6   3  23   4        -0.0058039537
      3   6  17  16         0.0057808406
      6   3  16  17         0.0057808406
      5   7   9  12        -0.0057736855
      7   5  12   9        -0.0057736855
      3   4   2  23        -0.0057490181
      4   3  23   2        -0.0057490181
      2   3   4   2        -0.0057481591
      3   2   2   4        -0.0057481591
      6   7   0  15        -0.0057390525
      7   6  15   0        -0.0057390525
      4   6  11  16         0.0057330865
      6   4  16  11         0.0057330865
      3   7   9   5        -0.0057314178
      7   3   5   9        -0.0057314178
      7   7  13  13        -0.0057270903
      2   5  12  29        -0.0057236668
      5   2  29  12        -0.0057236668
      3   6  20  18         0.0057146529
      6   3  18  20         0.0057146529
      7   7   8  20         0.0056978499
      7   7  20   8         0.0056978499
      3   7   4   8        -0.0056835830
      7   3   8   4        -0.0056835830
      3   3   4  12         0.0056824821
      3   3  12   4         0.0056824821
      3   6  14  15        -0.0056507553
      6   3  15  14        -0.0056507553
      3   5   0  17         0.0056349700
      5   3  17   0         0.0056349700
      5   6  10   2        -0.0056288670
      6   5   2  10        -0.0056288670
      2   2  18  18        -0.0056166179
      4   4   1   1        -0.0055988007
      2   6   1   3        -0.0055848051
      6   2   3   1        -0.0055848051
      7   7   0  26        -0.0055763248
      7   7  26   0        -0.0055763248
      2   6  12   3        -0.0055674217
      6   2   3  12        -0.0055674217
      6   6   6   9        -0.0055493935
      6   6   9   6        -0.0055493935
      3   5   2  16         0.0055465830
      5   3  16   2         0.0055465830
      3   7   4  10        -0.0055385140
      7   3  10   4        -0.0055385140
      3   6  12  23         0.0055317387
      6   3  23  12         0.0055317387
      6   6  11  14         0.0055256695
      6   6  14  11         0.0055256695
      3   4   4  22        -0.0055215183
      4   3  22   4        -0.0055215183
      2   3  14   4        -0.0055078208
      3   2   4  14        -0.0055078208
      6   6  13  13        -0.0055075112
      4   4  11  11        -0.0055030575
      2   4  12  17         0.0054897738
      4   2  17  12         0.0054897738
      4   7  18  24         0.0054856247
      7   4  24  18         0.0054856247
      3   6   2   3        -0.0054775029
      6   3   3   2        -0.0054775029
      3   5  12  21         0.0054627902
      5   3  21  12         0.0054627902
      3   7   9  14        -0.0054554062
      7   3  14   9        -0.0054554062
      7   7  19  19        -0.0054501229
      2   5   5  11         0.0054446181
      5   2  11   5         0.0054446181
      2   4   3  21        -0.0054394510
      4   2  21   3        -0.0054394510
      5   6   2  23         0.0054278755
      6   5  23   2         0.0054278755
      6   6  25  25        -0.0054199678
      5   6  16  15         0.0054176428
      6   5  15  16         0.0054176428
      3   4  12  15        -0.0054071717
      4   3  15  12        -0.0054071717
      4   5   4  17        -0.0053957684
      5   4  17   4        -0.0053957684
      4   6   7   9        -0.0053884835
      6   4   9   7        -0.0053884835
      2   5   4   4         0.0053819007
      5   2   4   4         0.0053819007
      2   7   3  18         0.0053817875
      7   2  18   3         0.0053817875
      4   7  19  12         0.0053798491
      7   4  12  19         0.0053798491
      3   4  11   7        -0.0053774081
      4   3   7  11        -0.0053774081
      4   5  22   2         0.0053718293
      5   4   2  22         0.0053718293
      2   5  12  25        -0.0053704774
      5   2  25  12        -0.0053704774
      5   5   4  16        -0.0053637682
      5   5  16   4        -0.0053637682
      2   3  13   5        -0.0053566430
      3   2   5  13        -0.0053566430
      6   6  22  22        -0.0053532626
      4   4  12  12        -0.0053532287
      2   3  18  19        -0.0053423230
      3   2  19  18        -0.0053423230
      2   5   3  15        -0.0053368850
      5   2  15   3        -0.0053368850
      3   3  21  21        -0.0053320625
      7   7   4  12        -0.0053250890
      7   7  12   4        -0.0053250890
      5   6  16   3         0.0053230595
      6   5   3  16         0.0053230595
      5   5  13  13        -0.0053211699
      5   5  16  16        -0.0053160141
      3   3   7   7        -0.0053139573
      2   5   8  20         0.0053103826
      5   2  20   8         0.0053103826
      6   6   9   9        -0.0053090952
      5   6   0  18        -0.0053039216
      6   5  18   0        -0.0053039216
      6   6  12  12        -0.0052930210
      2   3   4  14        -0.0052898220
      3   2  14   4        -0.0052898220
      2   4  19   0         0.0052744536
      4   2   0  19         0.0052744536
      4   6   2  13        -0.0052703236
      6   4  13   2        -0.0052703236
      3   3   5  14        -0.0052697700
      3   3  14   5        -0.0052697700
      6   6   5   5        -0.0052672070
      3   3   4  13        -0.0052646643
      3   3  13   4        -0.0052646643
      6   7   9   3        -0.0052594764
      7   6   3   9        -0.0052594764
      4   6  21  25         0.0052554819
      6   4  25  21         0.0052554819
      7   7   1   4        -0.0052551940
      7   7   4   1        -0.0052551940
      5   5  22  22        -0.0052448628
      3   6  14  22        -0.0052418337
      6   3  22  14        -0.0052418337
      3   5  12  14        -0.0052374010
      5   3  14  12        -0.0052374010
      5   7   0  12        -0.0052284355
      7   5  12   0        -0.0052284355
      2   3   0  20        -0.0052236089
      3   2  20   0        -0.0052236089
      3   6  10   4         0.0052219880
      6   3   4  10         0.0052219880
      4   4  23  23        -0.0052187129
      3   4   3   1        -0.0052116445
      4   3   1   3        -0.0052116445
      2   6  18   0         0.0052038065
      6   2   0  18         0.0052038065
      2   3   3  10         0.0051847071
      3   2  10   3         0.0051847071
      4   4  22  22        -0.0051697431
      3   3   1   4        -0.0051650999
      3   3   4   1        -0.0051650999
      2   4  10   1         0.0051645837
      4   2   1  10         0.0051645837
      4   5   2  15         0.0051551788
      5   4  15   2         0.0051551788
      3   6  12  17         0.0051517274
      6   3  17  12         0.0051517274
      2   7  25   0        -0.0051506104
      7   2   0  25        -0.0051506104
      3   4  12   3        -0.0051471010
      4   3   3  12        -0.0051471010
      4   6  16   2        -0.0051453513
      6   4   2  16        -0.0051453513
      4   4  13  13        -0.0051372587
      5   6  25   3        -0.0051269495
      6   5   3  25        -0.0051269495
      3   5  16   2         0.0051268635
      5   3   2  16         0.0051268635
      2   2   5   5        -0.0051217559
      3   4  10   5         0.0051124441
      4   3   5  10         0.0051124441
      3   4   9  18         0.0051068857
      4   3  18   9         0.0051068857
      3   5  12  11        -0.0051042105
      5   3  11  12        -0.0051042105
      7   7   7   8        -0.0050971419
      7   7   8   7        -0.0050971419
      5   6   4  22         0.0050807822
      6   5  22   4         0.0050807822
      6   7  19  24         0.0050791493
      7   6  24  19         0.0050791493
      4   5  11  15        -0.0050571377
      5   4  15  11        -0.0050571377
      2   3  19  18        -0.0050486508
      3   2  18  19        -0.0050486508
      3   4  14  17         0.0050270028
      4   3  17  14         0.0050270028
      3   6  16  17         0.0050223513
      6   3  17  16         0.0050223513
      3   3   0  26         0.0050150527
      3   3  26   0         0.0050150527
      6   7   4  18        -0.0050121553
      7   6  18   4        -0.0050121553
      3   3  23  23        -0.0050112230
      3   7  10   4        -0.0050061651
      7   3   4  10        -0.0050061651
      3   3  22  22        -0.0049934911
      2   3  14  16        -0.0049880415
      3   2  16  14        -0.0049880415
      5   6  11  17         0.0049856810
      6   5  17  11         0.0049856810
      2   5   3  27        -0.0049848285
      5   2  27   3        -0.0049848285
      2   3   2   1        -0.0049810863
      3   2   1   2        -0.0049810863
      2   3   2  13        -0.0049767399
      3   2  13   2        -0.0049767399
      2   5  29  12        -0.0049705101
      5   2  12  29        -0.0049705101
      2   5   0   0         0.0049677145
      5   2   0   0         0.0049677145
      3   5   5   4         0.0049670344
      5   3   4   5         0.0049670344
      3   6  11  15         0.0049620569
      6   3  15  11         0.0049620569
      5   5  10  10        -0.0049433001
      3   6  10  13         0.0049257739
      6   3  13  10         0.0049257739
      6   6   3   9        -0.0049180741
      6   6   9   3        -0.0049180741
      3   3   5  11        -0.0049152922
      3   3  11   5        -0.0049152922
      2   7   0  25        -0.0049062689
      7   2  25   0        -0.0049062689
      6   7  17  20        -0.0049059289
      7   6  20  17        -0.0049059289
      3   4  10   2         0.0049023123
      4   3   2  10         0.0049023123
      2   2   2   2        -0.0048979592
      4   5  10   4        -0.0048966727
      5   4   4  10        -0.0048966727
      2   2  21  21        -0.0048856965
      4   6   5   1        -0.0048795073
      6   4   1   5        -0.0048795073
      3   6  15  11         0.0048778637
      6   3  11  15         0.0048778637
      5   7   4   9         0.0048776353
      7   5   9   4         0.0048776353
      6   7  19  11        -0.0048751962
      7   6  11  19        -0.0048751962
      5   7  25   0        -0.0048735139
      7   5   0  25        -0.0048735139
      2   2  19  19        -0.0048649014
      3   7  13  10        -0.0048641386
      7   3  10  13        -0.0048641386
      4   7  18  11        -0.0048636663
      7   4  11  18        -0.0048636663
      2   4  10  13         0.0048503471
      4   2  13  10         0.0048503471
      2   2   7   7        -0.0048498793
      4   6  25  21         0.0048462774
      6   4  21  25         0.0048462774
      3   3   6   6        -0.0048430975
      4   7   4   2         0.0048309363
      7   4   2   4         0.0048309363
      3   6   3  21        -0.0048294291
      6   3  21   3        -0.0048294291
      2   3  13   2        -0.0048264582
      3   2   2  13        -0.0048264582
      2   6  13   9        -0.0048211192
      6   2   9  13        -0.0048211192
      5   5   2   5        -0.0047960295
      5   5   5   2        -0.0047960295
      2   7  12  32        -0.0047954174
      7   2  32  12        -0.0047954174
      5   6   3  12        -0.0047937345
      6   5  12   3        -0.0047937345
      4   6   1   5        -0.0047921715
      6   4   5   1        -0.0047921715
      3   4  16  15        -0.0047885310
      4   3  15  16        -0.0047885310
      2   2  10  10        -0.0047882017
      2   3  11  13        -0.0047823173
      3   2  13  11        -0.0047823173
      2   5  14  14         0.0047814733
      5   2  14  14         0.0047814733
      3   6  17   4         0.0047789515
      6   3   4  17         0.0047789515
      2   3   0  10        -0.0047753372
      3   2  10   0        -0.0047753372
      4   6  22  23        -0.0047744472
      6   4  23  22        -0.0047744472
      4   5   3  14         0.0047729956
      5   4  14   3         0.0047729956
      2   6   9  18         0.0047725788
      6   2  18   9         0.0047725788
      3   4  14  10         0.0047619703
      4   3  10  14         0.0047619703
      4   5  15  21         0.0047597413
      5   4  21  15         0.0047597413
      2   3   8   9        -0.0047587426
      3   2   9   8        -0.0047587426
      3   4  20  19         0.0047447368
      4   3  19  20         0.0047447368
      5   5   1  13        -0.0047435670
      5   5  13   1        -0.0047435670
      2   6   1   9        -0.0047419167
      6   2   9   1        -0.0047419167
      3   5   0   8        -0.0047384850
      5   3   8   0        -0.0047384850
      3   6   9  19         0.0047370439
      6   3  19   9         0.0047370439
      2   5  12  35        -0.0047335912
      5   2  35  12        -0.0047335912
      3   5  12  24         0.0047243060
      5   3  24  12         0.0047243060
      2   4  12   7        -0.0047231851
      4   2   7  12        -0.0047231851
      6   7   7   7        -0.0047218746
      7   6   7   7        -0.0047218746
      5   7  20   2         0.0047209306
      7   5   2  20         0.0047209306
      7   7   0  15        -0.0047135081
      7   7  15   0        -0.0047135081
      4   5  10  25         0.0047090509
      5   4  25  10         0.0047090509
      4   7   4  11        -0.0047087916
      7   4  11   4        -0.0047087916
      3   4  15   4        -0.0047077808
      4   3   4  15        -0.0047077808
      2   3  16  14        -0.0047023968
      3   2  14  16        -0.0047023968
      5   7   2  10         0.0046959375
      7   5  10   2         0.0046959375
      4   6  21   1        -0.0046906008
      6   4   1  21        -0.0046906008
      5   7  21   8         0.0046859302
      7   5   8  21         0.0046859302
      4   5  19  26         0.0046848197
      5   4  26  19         0.0046848197
      5   7  16   0         0.0046735147
      7   5   0  16         0.0046735147
      5   7  25   9        -0.0046595457
      7   5   9  25        -0.0046595457
      2   2   8   8        -0.0046587769
      4   6  13   2        -0.0046537733
      6   4   2  13        -0.0046537733
      3   4  12  22         0.0046463391
      4   3  22  12         0.0046463391
      1   1  42  42        -0.0046462821
      4   5  23  12        -0.0046461097
      5   4  12  23        -0.0046461097
      0   0  42  42        -0.0046428596
      3   4  21  10         0.0046409633
      4   3  10  21         0.0046409633
      0   1  42  43        -0.0046406393
      1   0  43  42        -0.0046406393
      0   1  43  42        -0.0046405732
      1   0  42  43        -0.0046405732
      1   1  43  43        -0.0046391120
      0   0  43  43        -0.0046357730
      2   6  15  12        -0.0046217786
      6   2  12  15        -0.0046217786
      6   6   1  13        -0.0046213307
      6   6  13   1        -0.0046213307
      2   3   8   0        -0.0046168697
      3   2   0   8        -0.0046168697
      5   6  10  14        -0.0046139480
      6   5  14  10        -0.0046139480
      4   4  25  25        -0.0046096600
      5   5  11  21         0.0046076857
      5   5  21  11         0.0046076857
      2   2   6   6        -0.0046069102
      2   5   4  12        -0.0046023974
      5   2  12   4        -0.0046023974
      5   7   2  20         0.0046022789
      7   5  20   2         0.0046022789
      5   6  21  10        -0.0046022571
      6   5  10  21        -0.0046022571
      4   7   0  17         0.0045941123
      7   4  17   0         0.0045941123
      4   7  10   3        -0.0045636879
      7   4   3  10        -0.0045636879
      4   6   1  21        -0.0045611355
      6   4  21   1        -0.0045611355
      2   7  11  10        -0.0045581849
      7   2  10  11        -0.0045581849
      3   6   6  11        -0.0045574428
      6   3  11   6        -0.0045574428
      2   4   2   3        -0.0045570196
      4   2   3   2        -0.0045570196
      5   5  12  25        -0.0045502015
      5   5  25  12        -0.0045502015
      2   6   2  10         0.0045483629
      6   2  10   2         0.0045483629
      3   5  15  17        -0.0045445368
      5   3  17  15        -0.0045445368
      4   7  19  18         0.0045432363
      7   4  18  19         0.0045432363
      5   6  21  17        -0.0045406814
      6   5  17  21        -0.0045406814
      4   6  23  22        -0.0045397906
      6   4  22  23        -0.0045397906
      2   5  25  12        -0.0045366408
      5   2  12  25        -0.0045366408
      7   7   6   6        -0.0045344618
      4   5  17  16        -0.0045307551
      5   4  16  17        -0.0045307551
      3   4   3  16        -0.0045295173
      4   3  16   3        -0.0045295173
      2   3  11   1        -0.0045057321
      3   2   1  11        -0.0045057321
      3   5   3  10        -0.0045043247
      5   3  10   3        -0.0045043247
      2   4   6  11        -0.0044909259
      4   2  11   6        -0.0044909259
      6   7  16  18        -0.0044717827
      7   6  18  16        -0.0044717827
      6   6   0   6        -0.0044651074
      6   6   6   0        -0.0044651074
      4   5   8  12         0.0044648821
      5   4  12   8         0.0044648821
      2   5  14   5         0.0044642613
      5   2   5  14         0.0044642613
      2   4   9  19         0.0044537439
      4   2  19   9         0.0044537439
      3   4   6   1        -0.0044519560
      4   3   1   6        -0.0044519560
      7   7   1  13        -0.0044456038
      7   7  13   1        -0.0044456038
      4   7   8   0         0.0044417762
      7   4   0   8         0.0044417762
      5   7  11  20         0.0044399742
      7   5  20  11         0.0044399742
      3   4  25   3         0.0044202266
      4   3   3  25         0.0044202266
      3   6  13  17         0.0044150814
[...]
      1   1  24  21         0.0000010573
      4   7  41   5        -0.0000010511
      7   4   5  41        -0.0000010511
      0   3   1  19         0.0000010460
      3   0  19   1         0.0000010460
      5   6   3  43         0.0000010443
      6   5  43   3         0.0000010443
      1   3  19  14         0.0000010344
      3   1  14  19         0.0000010344
      1   4  18  37         0.0000010333
      4   1  37  18         0.0000010333
      0   0  19  19        -0.0000010332
      0   5  34  19        -0.0000010210
      5   0  19  34        -0.0000010210
      2   6  43   3         0.0000010107
      6   2   3  43         0.0000010107
      1   4  17   2         0.0000010099
      4   1   2  17         0.0000010099
      1   4  28  42        -0.0000009891
      4   1  42  28        -0.0000009891
      1   7  43  33         0.0000009805
      7   1  33  43         0.0000009805
      2   6  15  43         0.0000009795
      6   2  43  15         0.0000009795
      1   2   9  28        -0.0000009763
      2   1  28   9        -0.0000009763
      0   4  16  28        -0.0000009696
      4   0  28  16        -0.0000009696
      0   2  20  39         0.0000009661
      2   0  39  20         0.0000009661
      0   5  37  26        -0.0000009638
      5   0  26  37        -0.0000009638
      4   7  42  29         0.0000009564
      7   4  29  42         0.0000009564
      0   6  42  10         0.0000009398
      6   0  10  42         0.0000009398
      5   7   8  42         0.0000009332
      7   5  42   8         0.0000009332
      2   5  43   1        -0.0000009317
      5   2   1  43        -0.0000009317
      4   6  40  29        -0.0000009275
      6   4  29  40        -0.0000009275
      4   7  43  24        -0.0000009270
      7   4  24  43        -0.0000009270
      1   1  31  34        -0.0000009212
      1   1  34  31        -0.0000009212
      0   0  31  34        -0.0000009195
      0   0  34  31        -0.0000009195
      1   5  21  18        -0.0000009192
      5   1  18  21        -0.0000009192
      2   7  32  35        -0.0000009109
      7   2  35  32        -0.0000009109
      1   1  19  21        -0.0000009028
      1   1  21  19        -0.0000009028
      0   3  24  43         0.0000008999
      3   0  43  24         0.0000008999
      0   7  42  39        -0.0000008878
      7   0  39  42        -0.0000008878
      5   7  40  39        -0.0000008873
      7   5  39  40        -0.0000008873
      6   7  42  21        -0.0000008840
      7   6  21  42        -0.0000008840
      0   5  31   2        -0.0000008825
      5   0   2  31        -0.0000008825
      0   1  43  19        -0.0000008812
      1   0  19  43        -0.0000008812
      2   4  26  11         0.0000008793
      4   2  11  26         0.0000008793
      1   3  19  21        -0.0000008760
      3   1  21  19        -0.0000008760
      1   5  13  31        -0.0000008748
      5   1  31  13        -0.0000008748
      1   7  43   7        -0.0000008729
      7   1   7  43        -0.0000008729
      0   4  42   6        -0.0000008705
      4   0   6  42        -0.0000008705
      2   5  40  42         0.0000008704
      5   2  42  40         0.0000008704
      1   1  19  19        -0.0000008684
      0   2  40  19        -0.0000008682
      2   0  19  40        -0.0000008682
      6   7   2  42         0.0000008649
      7   6  42   2         0.0000008649
      1   5  18  42        -0.0000008639
      5   1  42  18        -0.0000008639
      0   2  18  12        -0.0000008585
      2   0  12  18        -0.0000008585
      0   4  42  27        -0.0000008552
      4   0  27  42        -0.0000008552
      0   6  43  26         0.0000008506
      6   0  26  43         0.0000008506
      0   1  19  43        -0.0000008457
      1   0  43  19        -0.0000008457
      0   5  42  24         0.0000008451
      5   0  24  42         0.0000008451
      0   4  43  10        -0.0000008399
      4   0  10  43        -0.0000008399
      1   4  43  26        -0.0000008325
      4   1  26  43        -0.0000008325
      1   5  24  38         0.0000008302
      5   1  38  24         0.0000008302
      0   4  24  26         0.0000008245
      4   0  26  24         0.0000008245
      1   4  20   2         0.0000008185
      4   1   2  20         0.0000008185
      5   6  42  23         0.0000008171
      6   5  23  42         0.0000008171
      0   3   5  30         0.0000008170
      3   0  30   5         0.0000008170
      1   4  13   0        -0.0000008145
      4   1   0  13        -0.0000008145
      1   6  43   7         0.0000008049
      6   1   7  43         0.0000008049
      1   5  13  19         0.0000007994
      5   1  19  13         0.0000007994
      4   5   6  42        -0.0000007895
      5   4  42   6        -0.0000007895
      0   4  42   0        -0.0000007873
      4   0   0  42        -0.0000007873
      6   7  36  42        -0.0000007835
      7   6  42  36        -0.0000007835
      0   4  23  18        -0.0000007830
      4   0  18  23        -0.0000007830
      0   4  24  37         0.0000007804
      4   0  37  24         0.0000007804
      4   5  42   0         0.0000007747
      5   4   0  42         0.0000007747
      1   4  42   8        -0.0000007696
      4   1   8  42        -0.0000007696
      0   6  16   6         0.0000007654
      6   0   6  16         0.0000007654
      1   5  42  18        -0.0000007648
      5   1  18  42        -0.0000007648
      0   2  19  42        -0.0000007640
      2   0  42  19        -0.0000007640
      0   2  23  33        -0.0000007636
      2   0  33  23        -0.0000007636
      4   7  36  43         0.0000007585
      7   4  43  36         0.0000007585
      3   4  43  26        -0.0000007565
      4   3  26  43        -0.0000007565
      1   6  19  37        -0.0000007495
      6   1  37  19        -0.0000007495
      2   5  23  28         0.0000007450
      5   2  28  23         0.0000007450
      1   5  43  19        -0.0000007448
      5   1  19  43        -0.0000007448
      0   4  30  28        -0.0000007345
      4   0  28  30        -0.0000007345
      3   5  18  42        -0.0000007320
      5   3  42  18        -0.0000007320
      0   2  14  19        -0.0000007304
      2   0  19  14        -0.0000007304
      1   5  18   2         0.0000007252
      5   1   2  18         0.0000007252
      0   5  18   4         0.0000007223
      5   0   4  18         0.0000007223
      1   2  27  28         0.0000007182
      2   1  28  27         0.0000007182
      1   6  22  14        -0.0000007173
      6   1  14  22        -0.0000007173
      2   3  31  43        -0.0000007058
      3   2  43  31        -0.0000007058
      4   6  19  43        -0.0000007049
      6   4  43  19        -0.0000007049
      3   4  17  42        -0.0000007011
      4   3  42  17        -0.0000007011
      1   7  42  27        -0.0000007007
      7   1  27  42        -0.0000007007
      3   4  28  42         0.0000006870
      4   3  42  28         0.0000006870
      0   5  42  34         0.0000006855
      5   0  34  42         0.0000006855
      1   7  43  23         0.0000006794
      7   1  23  43         0.0000006794
      1   2  19  43        -0.0000006771
      2   1  43  19        -0.0000006771
      0   4  43   7         0.0000006749
      4   0   7  43         0.0000006749
      1   2  43  24        -0.0000006663
      2   1  24  43        -0.0000006663
      1   3  18  38        -0.0000006608
      3   1  38  18        -0.0000006608
      1   6  39  30         0.0000006605
      6   1  30  39         0.0000006605
      1   4  19   7        -0.0000006511
      4   1   7  19        -0.0000006511
      0   0  21  24         0.0000006496
      0   0  24  21         0.0000006496
      0   7  25   0        -0.0000006447
      7   0   0  25        -0.0000006447
      0   5  42  36        -0.0000006446
      5   0  36  42        -0.0000006446
      5   6  43  26         0.0000006413
      6   5  26  43         0.0000006413
      7   7  34  42         0.0000006290
      7   7  42  34         0.0000006290
      0   3  26  23        -0.0000006286
      3   0  23  26        -0.0000006286
      2   7  43  15        -0.0000006221
      7   2  15  43        -0.0000006221
      1   4   1   9         0.0000006161
      4   1   9   1         0.0000006161
      7   7  30  43        -0.0000006069
      7   7  43  30        -0.0000006069
      0   4  28  41         0.0000006009
      4   0  41  28         0.0000006009
      4   4  31  42        -0.0000005941
      4   4  42  31        -0.0000005941
      1   6  27  42         0.0000005820
      6   1  42  27         0.0000005820
      1   4  18   3        -0.0000005734
      4   1   3  18        -0.0000005734
      1   2  26  23         0.0000005729
      2   1  23  26         0.0000005729
      0   6  43  15         0.0000005640
      6   0  15  43         0.0000005640
      0   6  42  28        -0.0000005625
      6   0  28  42        -0.0000005625
      0   7  43   9         0.0000005589
      7   0   9  43         0.0000005589
      0   1  31  30         0.0000005509
      1   0  30  31         0.0000005509
      0   6  27  43         0.0000005467
      6   0  43  27         0.0000005467
      1   2   5   1        -0.0000005378
      2   1   1   5        -0.0000005378
      0   1  19   1        -0.0000005365
      1   0   1  19        -0.0000005365
      1   4  42  20        -0.0000005330
      4   1  20  42        -0.0000005330
      1   4  28   2        -0.0000005304
      4   1   2  28        -0.0000005304
      1   6  28  38         0.0000005270
      6   1  38  28         0.0000005270
      0   2  11  31         0.0000005224
      2   0  31  11         0.0000005224
      1   4  42  28         0.0000005218
      4   1  28  42         0.0000005218
      0   3  32  33         0.0000005151
      3   0  33  32         0.0000005151
      0   5  43  18        -0.0000005124
      5   0  18  43        -0.0000005124
      0   0  11  19         0.0000005106
      0   0  19  11         0.0000005106
      1   5  18  36         0.0000005081
      5   1  36  18         0.0000005081
      1   6  43   8         0.0000005080
      6   1   8  43         0.0000005080
      0   3  19  13         0.0000005032
      3   0  13  19         0.0000005032
      0   7  27  35        -0.0000004962
      7   0  35  27        -0.0000004962
      0   1   1  19        -0.0000004952
      1   0  19   1        -0.0000004952
      0   2  33  28         0.0000004947
      2   0  28  33         0.0000004947
      4   5   0  42        -0.0000004946
      5   4  42   0        -0.0000004946
      1   5  11  18        -0.0000004936
      5   1  18  11        -0.0000004936
      6   7  42   2         0.0000004924
      7   6   2  42         0.0000004924
      4   5  43  28        -0.0000004723
      5   4  28  43        -0.0000004723
      1   2  23  32         0.0000004719
      2   1  32  23         0.0000004719
      0   6  43   9         0.0000004679
      6   0   9  43         0.0000004679
      0   2  26   6        -0.0000004673
      2   0   6  26        -0.0000004673
      1   7  28  35         0.0000004646
      7   1  35  28         0.0000004646
      6   7   1  43        -0.0000004582
      7   6  43   1        -0.0000004582
      5   7  42  23        -0.0000004494
      7   5  23  42        -0.0000004494
      0   1  18  24        -0.0000004419
      1   0  24  18        -0.0000004419
      1   4  13   9         0.0000004403
      4   1   9  13         0.0000004403
      0   0   5  31         0.0000004338
      0   0  31   5         0.0000004338
      0   1  19  13         0.0000004307
      1   0  13  19         0.0000004307
      1   4   8   2         0.0000004302
      4   1   2   8         0.0000004302
      1   5  11  13        -0.0000004290
      5   1  13  11        -0.0000004290
      1   5  31  43         0.0000004136
      5   1  43  31         0.0000004136
      1   1  11  19         0.0000004120
      1   1  19  11         0.0000004120
      0   2  30  13         0.0000004116
      2   0  13  30         0.0000004116
      4   5  28  12         0.0000004115
      5   4  12  28         0.0000004115
      1   5  43  36         0.0000004077
      5   1  36  43         0.0000004077
      1   3  25  18         0.0000004003
      3   1  18  25         0.0000004003
      1   4  34  28        -0.0000003963
      4   1  28  34        -0.0000003963
      3   5  42  18        -0.0000003944
      5   3  18  42        -0.0000003944
      0   3  19  43         0.0000003916
      3   0  43  19         0.0000003916
      2   4  42   9         0.0000003693
      4   2   9  42         0.0000003693
      4   6  35  40        -0.0000003511
      6   4  40  35        -0.0000003511
      1   4  42  10        -0.0000003503
      4   1  10  42        -0.0000003503
      0   6  43   6        -0.0000003475
      6   0   6  43        -0.0000003475
      0   7  33   5        -0.0000003435
      7   0   5  33        -0.0000003435
      1   5  18  40        -0.0000003260
      5   1  40  18        -0.0000003260
      0   1  13  19         0.0000003216
      1   0  19  13         0.0000003216
      2   3  43  19        -0.0000003187
      3   2  19  43        -0.0000003187
      0   4  43  28         0.0000003179
      4   0  28  43         0.0000003179
      4   7  41  42         0.0000003165
      7   4  42  41         0.0000003165
      3   5  19  16        -0.0000003098
      5   3  16  19        -0.0000003098
      0   4  42   9         0.0000003065
      4   0   9  42         0.0000003065
      1   4  18  22         0.0000003023
      4   1  22  18         0.0000003023
      2   2  14  31         0.0000002930
      2   2  31  14         0.0000002930
      6   6  30  43         0.0000002750
      6   6  43  30         0.0000002750
      0   3   1  31        -0.0000002666
      3   0  31   1        -0.0000002666
      1   5  40  35        -0.0000002532
      5   1  35  40        -0.0000002532
      0   6  42   7        -0.0000002517
      6   0   7  42        -0.0000002517
      0   4  26   2        -0.0000002483
      4   0   2  26        -0.0000002483
      0   4  43  20         0.0000002454
      4   0  20  43         0.0000002454
      0   6  23  14         0.0000002427
      6   0  14  23         0.0000002427
      1   4  43   9        -0.0000002402
      4   1   9  43        -0.0000002402
      0   5  26  15         0.0000002380
      5   0  15  26         0.0000002380
      1   3  42  19        -0.0000002360
      3   1  19  42        -0.0000002360
      1   3   5  19        -0.0000002274
      3   1  19   5        -0.0000002274
      0   6  43  27        -0.0000002228
      6   0  27  43        -0.0000002228
      0   2   5  14        -0.0000002223
      2   0  14   5        -0.0000002223
      0   5  31  14        -0.0000002192
      5   0  14  31        -0.0000002192
      1   5  18  14        -0.0000002083
      5   1  14  18        -0.0000002083
      0   3  43  19         0.0000002081
      3   0  19  43         0.0000002081
      0   1  26  17        -0.0000002063
      1   0  17  26        -0.0000002063
      0   4   2   9         0.0000002007
      4   0   9   2         0.0000002007
      6   7   1  41        -0.0000001953
      7   6  41   1        -0.0000001953
      0   1  24  18        -0.0000001921
      1   0  18  24        -0.0000001921
      3   5  42  43        -0.0000001876
      5   3  43  42        -0.0000001876
      0   6  15  30         0.0000001702
      6   0  30  15         0.0000001702
      0   4  11   9         0.0000001658
      4   0   9  11         0.0000001658
      4   7  43  34        -0.0000001652
      7   4  34  43        -0.0000001652
      0   5  31  42        -0.0000001508
      5   0  42  31        -0.0000001508
      0   4  28   1        -0.0000001487
      4   0   1  28        -0.0000001487
      1   3  24  42        -0.0000001452
      3   1  42  24        -0.0000001452
      6   7  34  42         0.0000001444
      7   6  42  34         0.0000001444
      1   6   1  28        -0.0000001427
      6   1  28   1        -0.0000001427
      1   7  24  15         0.0000001424
      7   1  15  24         0.0000001424
      1   1  24  40         0.0000001402
      1   1  40  24         0.0000001402
      1   6  18  10         0.0000001334
      6   1  10  18         0.0000001334
      1   5  26  10        -0.0000001262
      5   1  10  26        -0.0000001262
      0   7  18  26        -0.0000001261
      7   0  26  18        -0.0000001261
      0   7  43  15         0.0000001261
      7   0  15  43         0.0000001261
      0   6  20  14        -0.0000001185
      6   0  14  20        -0.0000001185
      1   6  40  32        -0.0000001183
      6   1  32  40        -0.0000001183
      0   5  41  18        -0.0000001019
      5   0  18  41        -0.0000001019
      1   7  26  11        -0.0000000973
      7   1  11  26        -0.0000000973
      3   6  26  42        -0.0000000951
      6   3  42  26        -0.0000000951
      5   7  17  42        -0.0000000831
      7   5  42  17        -0.0000000831
      2   3  42  30         0.0000000728
      3   2  30  42         0.0000000728
      1   2  31  25         0.0000000701
      2   1  25  31         0.0000000701
      0   4  43   8        -0.0000000699
      4   0   8  43        -0.0000000699
      0   7  43   6        -0.0000000691
      7   0   6  43        -0.0000000691
      0   2  42  19        -0.0000000690
      2   0  19  42        -0.0000000690
      1   7  35   7         0.0000000680
      7   1   7  35         0.0000000680
      0   7  42  20         0.0000000652
      7   0  20  42         0.0000000652
      6   7  43  29         0.0000000614
      7   6  29  43         0.0000000614
      0   5  42  19         0.0000000589
      5   0  19  42         0.0000000589
      1   4  43   6         0.0000000559
      4   1   6  43         0.0000000559
      0   5  13  18         0.0000000439
      5   0  18  13         0.0000000439
      6   7   2  40        -0.0000000376
      7   6  40   2        -0.0000000376
      0   1  24  35         0.0000000306
      1   0  35  24         0.0000000306
      1   4   2   8        -0.0000000301
      4   1   8   2        -0.0000000301
      3   3  24  42         0.0000000297
      3   3  42  24         0.0000000297
      1   2  43  19         0.0000000274
      2   1  19  43         0.0000000274
      4   5  39  18         0.0000000250
      5   4  18  39         0.0000000250
      4   6  18  42         0.0000000234
      6   4  42  18         0.0000000234
      1   3  19  42         0.0000000209
      3   1  42  19         0.0000000209
      0   5  43  16         0.0000000207
      5   0  16  43         0.0000000207
      2   3  18  42         0.0000000144
      3   2  42  18         0.0000000144

    SCF energy       (wfn)                    =  -78.027298209878921
    Reference energy (file100)                =  -78.027298209878879

    Opposite-spin MP2 correlation energy      =   -0.244815971192708
    Same-spin MP2 correlation energy          =   -0.060526204557213
    MP2 correlation energy                    =   -0.305342175749922
      * MP2 total energy                      =  -78.332640385628807

    Opposite-spin CCSD correlation energy     =   -0.281982907916241
    Same-spin CCSD correlation energy         =   -0.054966909087344
    CCSD correlation energy                   =   -0.336949817003585
      * CCSD total energy                     =  -78.364248026882464


*** tstop() called on Berts-MacBook-Pro.local at Wed Dec  6 23:17:25 2017
Module time:
	user time   =     148.63 seconds =       2.48 minutes
	system time =       3.63 seconds =       0.06 minutes
	total time  =        153 seconds =       2.55 minutes
Total time:
	user time   =     203.99 seconds =       3.40 minutes
	system time =       4.68 seconds =       0.08 minutes
	total time  =        209 seconds =       3.48 minutes

*** Psi4 exiting successfully. Buy a developer a beer!
