
    -----------------------------------------------------------------------
          Psi4: An Open-Source Ab Initio Electronic Structure Package
                               Psi4 1.1 release

                         Git: Rev {HEAD} add49b9 


    R. M. Parrish, L. A. Burns, D. G. A. Smith, A. C. Simmonett,
    A. E. DePrince III, E. G. Hohenstein, U. Bozkaya, A. Yu. Sokolov,
    R. Di Remigio, R. M. Richard, J. F. Gonthier, A. M. James,
    H. R. McAlexander, A. Kumar, M. Saitow, X. Wang, B. P. Pritchard,
    P. Verma, H. F. Schaefer III, K. Patkowski, R. A. King, E. F. Valeev,
    F. A. Evangelista, J. M. Turney, T. D. Crawford, and C. D. Sherrill,
    J. Chem. Theory Comput. in press (2017).
    (doi: 10.1021/acs.jctc.7b00174)

    -----------------------------------------------------------------------


    Psi4 started on: Wednesday, 06 December 2017 10:48PM

    Process ID:  12137
    PSIDATADIR: /anaconda3/share/psi4
    Memory:     500.0 MiB
    Threads:    1
    
  ==> Input File <==

--------------------------------------------------------------------------
"""This is a template for psi4 input format."""
import numpy
import sys

from openfermion.config import *
from openfermion.ops._interaction_tensor import (one_body_basis_change,
                                              two_body_basis_change)
from openfermion.hamiltonians import MolecularData
from numpy import array

sys.path.append('/Users/wadejong/Desktop/Quantum-Computing/OpenFermion/OpenFermion-Psi4/openfermionpsi4')
from _psi4_conversion_functions import *

# Set number of threads in PSI4
set_num_threads(8)

# Set memory that job can use in megabytes.
memory 8000 mb

# Initialize molecular data.
_description = 'ethylene_2.04204'
if _description == 'None':
    _description = None
molecule = MolecularData([['C', array([ 0.      ,  0.      ,  0.673055])], ['C', array([ 0.      ,  0.      , -0.673055])], ['H', array([ 0.      ,  0.934981,  1.246807])], ['H', array([ 0.      , -0.934981,  1.246807])], ['H', array([ 0.83307417,  0.42447249, -1.246807  ])], ['H', array([-0.83307417, -0.42447249, -1.246807  ])]],
                         'DZP',
                         1,
                         0,
                         _description,
                          filename='/Users/wadejong/Desktop/QCQCSiddiqi/8_Qubit_Simulation/data/H4-C2_DZP_singlet_ethylene_2.04204')

# Set molecular geometry and symmetry.
molecule mol {
C 0.0 0.0 0.673055
C 0.0 0.0 -0.673055
H 0.0 0.934981 1.246807
H 0.0 -0.934981 1.246807
H 0.8330741709921644 0.4244724914369811 -1.246807
H -0.8330741709921644 -0.4244724914369811 -1.246807
symmetry c1
}
mol.set_multiplicity(1)
mol.set_molecular_charge(0)

# Set reference and guess.
if molecule.multiplicity == 1:
    set reference rhf
    set guess sad
    set sad_frac_occ true
else:
    set reference rohf
    set guess sad
    set sad_frac_occ true

# Set global parameters of calculation.
set globals {
    basis DZP
    freeze_core false
    fail_on_maxiter true
    df_scf_guess false
    guess sad
    sad_frac_occ true
    opdm false
    tpdm false
    soscf true
    scf_type pk
    diis true
    maxiter 1e6
    num_amps_print 1e6
    r_convergence 1e-7
    d_convergence 1e-7
    e_convergence 1e-7
    ints_tolerance EQUALITY_TOLERANCE
    damping_percentage 0
}

# Run self-consistent field (SCF) calculation.
if True:
    try:

        hf_energy, hf_wavefunction = energy('scf', return_wfn=True)
        scf_wfn = hf_wavefunction
        if True:
            print('Hartree-Fock energy for {} ({} electrons) is {}.'.format(
                molecule.name, molecule.n_electrons, hf_energy))
    except:
        if True:
            print('WARNING: SCF calculation failed.')
        else:
            raise
    else:
        # Get orbitals and Fock matrix.
        molecule.hf_energy = hf_energy
        molecule.nuclear_repulsion = mol.nuclear_repulsion_energy()
        molecule.canonical_orbitals = numpy.asarray(hf_wavefunction.Ca())
        molecule.n_orbitals = molecule.canonical_orbitals.shape[0]
        molecule.n_qubits = 2 * molecule.n_orbitals
        molecule.orbital_energies = numpy.asarray(hf_wavefunction.epsilon_a())
        molecule.fock_matrix = numpy.asarray(hf_wavefunction.Fa())

        # Get integrals using MintsHelper.
        mints = MintsHelper(hf_wavefunction.basisset())
        molecule.one_body_integrals = one_body_basis_change(
            numpy.asarray(mints.ao_kinetic()), molecule.canonical_orbitals)
        molecule.one_body_integrals += one_body_basis_change(
            numpy.asarray(mints.ao_potential()), molecule.canonical_orbitals)
        two_body_integrals = numpy.asarray(mints.ao_eri())
        two_body_integrals.reshape((molecule.n_orbitals, molecule.n_orbitals,
                                    molecule.n_orbitals, molecule.n_orbitals))
        two_body_integrals = numpy.einsum('psqr', two_body_integrals)
        two_body_integrals = two_body_basis_change(
            two_body_integrals, molecule.canonical_orbitals)
        molecule.two_body_integrals = two_body_integrals
        molecule.save()


# Perform MP2 energy calculation if there are at least two electrons.
if True:
    try:
        assert molecule.n_electrons > 1
        mp2_energy = energy('mp2',ref_wfn=scf_wfn)
        if True:
            print('MP2 energy for {} ({} electrons) is {}.'.format(
                molecule.name, molecule.n_electrons, mp2_energy))
    except:
        if True:
            print('WARNING: MP2 calculation failed.')
        else:
            raise
    else:
        molecule.mp2_energy = mp2_energy
        molecule.save()


# Perform configuration interaction singles and doubles (CISD) calculation.
if True:
    set qc_module detci
    try:
        cisd_energy, cisd_wavefunction = energy('cisd', ref_wfn=scf_wfn, return_wfn=True)
        if True:
            print('CISD energy for {} ({} electrons) is {}.'.format(
                molecule.name, molecule.n_electrons, cisd_energy))
    except:
        if True:
            print('WARNING: CISD calculation failed.')
        else:
            raise
    else:
        # For the functions below, "a" and "b" refer to "up and "down" spins.
        molecule.cisd_energy = cisd_energy

        # Get 1-RDM from CISD calculation.
        """cisd_one_rdm_a = numpy.array(cisd_wavefunction.get_opdm(
            0, 0, 'A', True)).reshape(molecule.n_orbitals, molecule.n_orbitals)
        cisd_one_rdm_b = numpy.array(cisd_wavefunction.get_opdm(
            0, 0, 'B', True)).reshape(molecule.n_orbitals, molecule.n_orbitals)

        # Get 2-RDM from CISD calculation.
        cisd_two_rdm_aa = numpy.array(cisd_wavefunction.get_tpdm(
            'AA', False)).reshape(molecule.n_orbitals, molecule.n_orbitals,
                                  molecule.n_orbitals, molecule.n_orbitals)
        cisd_two_rdm_ab = numpy.array(cisd_wavefunction.get_tpdm(
            'AB', False)).reshape(molecule.n_orbitals, molecule.n_orbitals,
                                  molecule.n_orbitals, molecule.n_orbitals)
        cisd_two_rdm_bb = numpy.array(cisd_wavefunction.get_tpdm(
            'BB', False)).reshape(molecule.n_orbitals, molecule.n_orbitals,
                                  molecule.n_orbitals, molecule.n_orbitals)

        # Get overall RDMs.
        cisd_one_rdm, cisd_two_rdm = unpack_spatial_rdm(
            cisd_one_rdm_a, cisd_one_rdm_b, cisd_two_rdm_aa,
            cisd_two_rdm_ab, cisd_two_rdm_bb)

        # Store 1-RDM in molecule file, 2-RDM separately in other file.
        molecule.cisd_one_rdm = cisd_one_rdm
        molecule.cisd_two_rdm = cisd_two_rdm
        molecule.save()"""


# Perform exact diagonalization.
if False:
    set qc_module detci
    try:
        fci_energy, fci_wavefunction = energy('fci', ref_wfn=scf_wfn, return_wfn=True)
        if True:
            print('FCI energy for {} ({} electrons) is {}.'.format(
                molecule.name, molecule.n_electrons, fci_energy))
    except:
        if True:
            print('WARNING: FCI calculation failed.')
        else:
            raise
    else:
        # For the functions below, "a" and "b" refer to "up and "down" spins.
        molecule.fci_energy = fci_energy

        # Get 1-RDM from FCI calculation.
        """fci_one_rdm_a = numpy.array(fci_wavefunction.get_opdm(
            0, 0, 'A', True)).reshape(molecule.n_orbitals, molecule.n_orbitals)
        fci_one_rdm_b = numpy.array(fci_wavefunction.get_opdm(
            0, 0, 'B', True)).reshape(molecule.n_orbitals, molecule.n_orbitals)

        # Get 2-RDM from FCI calculation.
        fci_two_rdm_aa = numpy.array(fci_wavefunction.get_tpdm(
            'AA', False)).reshape(molecule.n_orbitals, molecule.n_orbitals,
                                  molecule.n_orbitals, molecule.n_orbitals)
        fci_two_rdm_ab = numpy.array(fci_wavefunction.get_tpdm(
            'AB', False)).reshape(molecule.n_orbitals, molecule.n_orbitals,
                                  molecule.n_orbitals, molecule.n_orbitals)
        fci_two_rdm_bb = numpy.array(fci_wavefunction.get_tpdm(
            'BB', False)).reshape(molecule.n_orbitals, molecule.n_orbitals,
                                  molecule.n_orbitals, molecule.n_orbitals)

        # Get overall RDMs.
        fci_one_rdm, fci_two_rdm = unpack_spatial_rdm(
            fci_one_rdm_a, fci_one_rdm_b,
            fci_two_rdm_aa, fci_two_rdm_ab, fci_two_rdm_bb)

        # Store 1-RDM in molecule file, 2-RDM separately in other file.
        molecule.fci_one_rdm = fci_one_rdm
        molecule.fci_two_rdm = fci_two_rdm
        molecule.save()"""


# Perform coupled cluster singles and doubles (CCSD) calculation.
if True:
    set qc_module ccenergy
    try:
        ccsd_energy = energy('ccsd',ref_wfn=scf_wfn)
        if True:
            print('CCSD energy for {} ({} electrons) is {}.'.format(
                molecule.name, molecule.n_electrons, ccsd_energy))
    except:
        if True:
            print('WARNING: CCSD calculation failed.')
        else:
            raise
    else:
        molecule.ccsd_energy = ccsd_energy

        # Merge CC amplitudes into molecule by parsing
        psi_filename = outfile_name()
        ccsd_amplitudes = parse_psi4_ccsd_amplitudes(
            2 * molecule.n_orbitals,
            molecule.get_n_alpha_electrons(),
            molecule.get_n_beta_electrons(),
            psi_filename)
        molecule.ccsd_amplitudes = ccsd_amplitudes
        molecule.save()
--------------------------------------------------------------------------
  Python driver attempted to set threads to 8.
  Psi4 was compiled without OpenMP, setting threads to 1.

  Memory set to   7.451 GiB by Python driver.

*** tstart() called on Berts-MacBook-Pro.local
*** at Wed Dec  6 22:48:56 2017

   => Loading Basis Set <=

    Name: DZP
    Role: ORBITAL
    Keyword: BASIS
    atoms 1-2 entry C          line    73 file /anaconda3/share/psi4/basis/dzp.gbs 
    atoms 3-6 entry H          line    16 file /anaconda3/share/psi4/basis/dzp.gbs 


         ---------------------------------------------------------
                                   SCF
            by Justin Turney, Rob Parrish, and Andy Simmonett
                              RHF Reference
                        1 Threads,   7629 MiB Core
         ---------------------------------------------------------

  ==> Geometry <==

    Molecular point group: c1
    Full point group: D2

    Geometry (in Angstrom), charge = 0, multiplicity = 1:

       Center              X                  Y                   Z               Mass       
    ------------   -----------------  -----------------  -----------------  -----------------
           C          0.000000000000     0.000000000000     0.673055000000    12.000000000000
           C          0.000000000000     0.000000000000    -0.673055000000    12.000000000000
           H         -0.488526230537     0.797202353508     1.246807000000     1.007825032070
           H          0.488526230537    -0.797202353508     1.246807000000     1.007825032070
           H          0.488526230537     0.797202353508    -1.246807000000     1.007825032070
           H         -0.488526230537    -0.797202353508    -1.246807000000     1.007825032070

  Running in c1 symmetry.

  Rotational constants: A =      4.78350  B =      0.93131  C =      0.85568 [cm^-1]
  Rotational constants: A = 143405.72603  B =  27920.03888  C =  25652.63794 [MHz]
  Nuclear repulsion =   32.995695942201785

  Charge       = 0
  Multiplicity = 1
  Electrons    = 16
  Nalpha       = 8
  Nbeta        = 8

  ==> Algorithm <==

  SCF Algorithm Type is PK.
  DIIS enabled.
  MOM disabled.
  Fractional occupation disabled.
  Guess Type is SAD.
  Energy threshold   = 1.00e-07
  Density threshold  = 1.00e-07
  Integral threshold = 0.00e+00

  ==> Primary Basis <==

  Basis Set: DZP
    Blend: DZP
    Number of shells: 26
    Number of basis function: 52
    Number of Cartesian functions: 52
    Spherical Harmonics?: false
    Max angular momentum: 2

  ==> Pre-Iterations <==

   -------------------------------------------------------
    Irrep   Nso     Nmo     Nalpha   Nbeta   Ndocc  Nsocc
   -------------------------------------------------------
     A         52      52       0       0       0       0
   -------------------------------------------------------
    Total      52      52       8       8       8       0
   -------------------------------------------------------

  ==> Integral Setup <==

  Using in-core PK algorithm.
   Calculation information:
      Number of atoms:                   6
      Number of AO shells:              26
      Number of primitives:             50
      Number of atomic orbitals:        52
      Number of basis functions:        52

      Integral cutoff                 1.00e-12
      Number of threads:                 1

  Performing in-core PK
  Using 1900262 doubles for integral storage.
  We computed 61769 shell quartets total.
  Whereas there are 61776 unique shell quartets.
  ==> DiskJK: Disk-Based J/K Matrices <==

    J tasked:                  Yes
    K tasked:                  Yes
    wK tasked:                  No
    Memory (MB):              5722
    Schwarz Cutoff:          1E-12

    OpenMP threads:              1
  Minimum eigenvalue in the overlap matrix is 9.1182681386E-03.
  Using Symmetric Orthogonalization.

  SCF Guess: Superposition of Atomic Densities via on-the-fly atomic UHF.

  ==> Iterations <==

                        Total Energy        Delta E     RMS |[F,P]|

   @RHF iter   0:   -69.16341063394029   -6.91634e+01   1.01492e-01 
   @RHF iter   1:   -74.20286210724919   -5.03945e+00   4.01191e-02 
   @RHF iter   2:   -77.07769959409916   -2.87484e+00   2.45305e-02 DIIS/DAMP
   @RHF iter   3:   -77.95062434374530   -8.72925e-01   2.43405e-03 DIIS/DAMP
   @RHF iter   4:   -77.96272537352910   -1.21010e-02   4.33300e-04 SOSCF, nmicro = 4/DAMP
   @RHF iter   5:   -77.96342215379138   -6.96780e-04   2.25789e-06 SOSCF, nmicro = 4/DAMP
   @RHF iter   6:   -77.96342216700566   -1.32143e-08   2.76447e-09 SOSCF, conv/DAMP

  ==> Post-Iterations <==

    Orbital Energies (a.u.)
    -----------------------

    Doubly Occupied:                                                      

       1A    -11.248250     2A    -11.246741     3A     -1.030197  
       4A     -0.790100     5A     -0.616989     6A     -0.585420  
       7A     -0.554974     8A     -0.303218  

    Virtual:                                                              

       9A      0.087634    10A      0.257208    11A      0.317258  
      12A      0.334588    13A      0.401356    14A      0.412200  
      15A      0.451787    16A      0.455924    17A      0.475030  
      18A      0.565525    19A      0.592217    20A      0.686215  
      21A      0.817173    22A      1.007262    23A      1.217392  
      24A      1.258160    25A      1.298600    26A      1.391010  
      27A      1.554372    28A      1.633054    29A      1.754165  
      30A      1.965928    31A      1.977573    32A      2.051299  
      33A      2.081305    34A      2.126431    35A      2.211927  
      36A      2.439033    37A      2.458672    38A      2.472033  
      39A      2.616181    40A      2.781087    41A      2.869145  
      42A      2.909587    43A      2.936638    44A      3.193073  
      45A      3.427903    46A      3.501014    47A      3.570625  
      48A      3.758688    49A      4.252114    50A      4.496352  
      51A     27.637534    52A     27.652850  

    Final Occupation by Irrep:
              A 
    DOCC [     8 ]

  Energy converged.

  @RHF Final Energy:   -77.96342216700566

   => Energetics <=

    Nuclear Repulsion Energy =             32.9956959422017846
    One-Electron Energy =                -169.1664565809852832
    Two-Electron Energy =                  58.2073384717778310
    DFT Exchange-Correlation Energy =       0.0000000000000000
    Empirical Dispersion Energy =           0.0000000000000000
    PCM Polarization Energy =               0.0000000000000000
    EFP Energy =                            0.0000000000000000
    Total Energy =                        -77.9634221670056604



Properties will be evaluated at   0.000000,   0.000000,   0.000000 Bohr

Properties computed using the SCF density matrix

  Nuclear Dipole Moment: (a.u.)
     X:     0.0000      Y:     0.0000      Z:     0.0000

  Electronic Dipole Moment: (a.u.)
     X:     0.0000      Y:    -0.0000      Z:     0.0000

  Dipole Moment: (a.u.)
     X:     0.0000      Y:    -0.0000      Z:     0.0000     Total:     0.0000

  Dipole Moment: (Debye)
     X:     0.0000      Y:    -0.0000      Z:     0.0000     Total:     0.0000


*** tstop() called on Berts-MacBook-Pro.local at Wed Dec  6 22:48:57 2017
Module time:
	user time   =       0.40 seconds =       0.01 minutes
	system time =       0.02 seconds =       0.00 minutes
	total time  =          1 seconds =       0.02 minutes
Total time:
	user time   =       0.40 seconds =       0.01 minutes
	system time =       0.02 seconds =       0.00 minutes
	total time  =          1 seconds =       0.02 minutes

*** tstart() called on Berts-MacBook-Pro.local
*** at Wed Dec  6 22:49:01 2017


  //>>>>>>>>>>>>>>>>>>>>>>>>>>>>>>>>>>>//
  //               DFMP2               //
  //<<<<<<<<<<<<<<<<<<<<<<<<<<<<<<<<<<<//

   => Loading Basis Set <=

    Name: (DZP AUX)
    Role: RIFIT
    Keyword: DF_BASIS_MP2
    atoms 1-2 entry C          line   269 file /anaconda3/share/psi4/basis/def2-qzvpp-ri.gbs 
    atoms 3-6 entry H          line    23 file /anaconda3/share/psi4/basis/def2-qzvpp-ri.gbs 

	 --------------------------------------------------------
	                          DF-MP2                         
	      2nd-Order Density-Fitted Moller-Plesset Theory     
	              RMP2 Wavefunction,   1 Threads             
	                                                         
	        Rob Parrish, Justin Turney, Andy Simmonett,      
	           Ed Hohenstein, and C. David Sherrill          
	 --------------------------------------------------------

   => Auxiliary Basis Set <=

  Basis Set: (DZP AUX)
    Blend: DEF2-QZVPP-RI
    Number of shells: 130
    Number of basis function: 506
    Number of Cartesian functions: 666
    Spherical Harmonics?: true
    Max angular momentum: 5

	 --------------------------------------------------------
	                 NBF =    52, NAUX =   506
	 --------------------------------------------------------
	   CLASS    FOCC     OCC    AOCC    AVIR     VIR    FVIR
	   PAIRS       0       8       8      44      44       0
	 --------------------------------------------------------

	-----------------------------------------------------------
	 ==================> DF-MP2 Energies <==================== 
	-----------------------------------------------------------
	 Reference Energy          =     -77.9634221670056604 [Eh]
	 Singles Energy            =      -0.0000000000000000 [Eh]
	 Same-Spin Energy          =      -0.0612354003137159 [Eh]
	 Opposite-Spin Energy      =      -0.2487168097966147 [Eh]
	 Correlation Energy        =      -0.3099522101103306 [Eh]
	 Total Energy              =     -78.2733743771159851 [Eh]
	-----------------------------------------------------------
	 ================> DF-SCS-MP2 Energies <================== 
	-----------------------------------------------------------
	 SCS Same-Spin Scale       =       0.3333333333333333 [-]
	 SCS Opposite-Spin Scale   =       1.2000000000000000 [-]
	 SCS Same-Spin Energy      =      -0.0204118001045720 [Eh]
	 SCS Opposite-Spin Energy  =      -0.2984601717559376 [Eh]
	 SCS Correlation Energy    =      -0.3188719718605096 [Eh]
	 SCS Total Energy          =     -78.2822941388661633 [Eh]
	-----------------------------------------------------------


*** tstop() called on Berts-MacBook-Pro.local at Wed Dec  6 22:49:01 2017
Module time:
	user time   =       0.28 seconds =       0.00 minutes
	system time =       0.05 seconds =       0.00 minutes
	total time  =          0 seconds =       0.00 minutes
Total time:
	user time   =       4.61 seconds =       0.08 minutes
	system time =       0.21 seconds =       0.00 minutes
	total time  =          5 seconds =       0.08 minutes
 MINTS: Wrapper to libmints.
   by Justin Turney

   Calculation information:
      Number of threads:                 1
      Number of atoms:                   6
      Number of AO shells:              26
      Number of SO shells:              26
      Number of primitives:             50
      Number of atomic orbitals:        52
      Number of basis functions:        52

      Number of irreps:                  1
      Integral cutoff                 0.00e+00
      Number of functions per irrep: [  52 ]

 OEINTS: Overlap, kinetic, potential, dipole, and quadrupole integrals
         stored in file 35.

      Computing two-electron integrals...done
      Computed 840553 non-zero two-electron integrals.
        Stored in file 33.


         ---------------------------------------------------------
                          Configuration Interaction
                            (a 'D E T C I' module)

                 C. David Sherrill, Daniel G. A. Smith, and
                              Matt L. Leininger
         ---------------------------------------------------------


   ==> Parameters <==

    EX LEVEL       =        2      H0 BLOCKSIZE  =     1000
    VAL EX LEVEL   =        0      H0 GUESS SIZE =     1000
    H0COUPLINGSIZE =        0      H0 COUPLING   =       NO
    MAXITER        =       24      NUM PRINT     =       20
    NUM ROOTS      =        1      ICORE         =        1
    PRINT LVL      =        1      FCI           =       NO
    R CONV         = 1.00e-07      MIXED         =      YES
    E CONV         = 1.00e-07      MIXED4        =      YES
    R4S            =       NO      REPL OTF      =       NO
    DIAG METHOD    =      SEM      FOLLOW ROOT   =        0
    PRECONDITIONER = DAVIDSON      UPDATE        = DAVIDSON
    S              =   0.0000      Ms0           =      YES
    GUESS VECTOR   =  H0BLOCK      OPENTYPE      =     NONE
    COLLAPSE SIZE  =        1      HD AVG        = EVANGELISTI
    MAX NUM VECS   =       25      REF SYM       =     AUTO
    IOPEN        =       NO

    EX ALLOW       =  1  1 
    STATE AVERAGE  =  0(1.00) 

   ==> CI Orbital and Space information <==

    RAS1 LVL      =        7      A RAS3 MAX    =        2
    RAS1 MIN      =       14      B RAS3 MAX    =        2
    A RAS1 LVL    =        7      RAS4 LVL      =       52
    A RAS1 MIN    =        6      A RAS4 MAX    =        0
    A RAS1 MAX    =        8      B RAS4 MAX    =        0
    B RAS1 LVL    =        7      RAS4 MAX      =        0
    B RAS1 MIN    =        6      A RAS34 MAX   =        2
    B RAS1 MAX    =        8      B RAS34 MAX   =        2
    RAS3 LVL      =        8      RAS34 MAX     =        2
    RAS3 MAX      =        2
   ------------------------------------
               Space    Total     A
   ------------------------------------
                 Nso       52    52
                 Nmo       52    52
               Ndocc        8     8
               Nsocc        0     0
   ------------------------------------
              CI Spaces
   ------------------------------------
        Dropped DOCC        0     0
                RAS1        8     8
                RAS2        0     0
                RAS3       44    44
                RAS4        0     0
      Active (total)       52    52
        Dropped UOCC        0     0
   ------------------------------------

   ==> Setting up CI strings <==

    There are 26841 alpha and 26841 beta strings
    The CI space requires 177585 (1.78E+05) determinants and 6 blocks

   ==> Transforming CI integrals <==

	Presorting SO-basis two-electron integrals.
	Sorting File: SO Ints (nn|nn) nbuckets = 1
	Transforming the one-electron integrals and constructing Fock matrices
	Starting first half-transformation.
	Sorting half-transformed integrals.
	First half integral transformation complete.
	Starting second half-transformation.
	Two-electron integral transformation complete.

   ==> Starting CI iterations <==

    H0 Block Eigenvalue = -78.01010528

    Simultaneous Expansion Method (Block Davidson Method)
    Using 1 initial trial vectors

     Iter   Root       Total Energy       Delta E      C RMS

   @CI  0:     0    -78.010105275138   -1.1101E+02   1.4907E+00  
   @CI  1:     0    -78.257847331009   -2.4774E-01   1.5887E-01  
   @CI  2:     0    -78.274497194008   -1.6650E-02   6.5173E-02  
   @CI  3:     0    -78.276778969147   -2.2818E-03   2.1069E-02  
   @CI  4:     0    -78.276955677590   -1.7671E-04   5.9198E-03  
   @CI  5:     0    -78.276969177845   -1.3500E-05   1.6422E-03  
   @CI  6:     0    -78.276970135050   -9.5721E-07   4.5668E-04  
   @CI  7:     0    -78.276970208872   -7.3822E-08   1.3047E-04  
   @CI  8:     0    -78.276970214118   -5.2454E-09   3.0672E-05  
   @CI  9:     0    -78.276970214418   -3.0055E-10   7.6960E-06  
   @CI 10:     0    -78.276970214436   -1.7437E-11   1.6139E-06  
   @CI 11:     0    -78.276970214436   -7.5318E-13   3.3537E-07  
    Warning: Norm of correction (root 0) is < 1.0E-13
   @CI 12:     0    -78.276970214436   0.0000E+00   7.3865E-08 c

   ==> Energetics <==

    SCF energy =            0.000000000000000
    Total CI energy =     -78.276970214436318

   ==> CISD root 0 information <==

    CISD Root 0 energy =   -78.276970214436318

   The 20 most important determinants:

    *   1   -0.946384  (    0,    0)  1AX 2AX 3AX 4AX 5AX 6AX 7AX 8AX 
    *   2    0.111787  (    1,    1)  1AX 2AX 3AX 4AX 5AX 6AX 7AX 9AX 
    *   3    0.041402  (    1,   81)  1AX 2AX 3AX 4AX 5AX 6AX 7AX 9AA 19AB 
    *   4    0.041402  (   81,    1)  1AX 2AX 3AX 4AX 5AX 6AX 7AX 9AB 19AA 
    *   5   -0.030079  (    1,    2)  1AX 2AX 3AX 4AX 5AX 6AX 7AA 8AB 9AX 
    *   6   -0.030079  (    2,    1)  1AX 2AX 3AX 4AX 5AX 6AX 7AB 8AA 9AX 
    *   7    0.027095  (   99,   99)  1AX 2AX 3AX 4AX 5AX 7AX 8AX 21AX 
    *   8    0.022223  (    2,    2)  1AX 2AX 3AX 4AX 5AX 6AX 8AX 9AX 
    *   9    0.022001  (    1,   99)  1AX 2AX 3AX 4AX 5AX 6AA 7AX 8AB 9AA 21AB 
    *  10    0.022001  (   99,    1)  1AX 2AX 3AX 4AX 5AX 6AB 7AX 8AA 9AB 21AA 
    *  11    0.021804  (   81,   81)  1AX 2AX 3AX 4AX 5AX 6AX 7AX 19AX 
    *  12    0.019218  (    5,    5)  1AX 2AX 3AX 5AX 6AX 7AX 8AX 9AX 
    *  13    0.018520  (   36,   36)  1AX 2AX 3AX 4AX 6AX 7AX 8AX 13AX 
    *  14    0.018021  (   43,   43)  1AX 2AX 3AX 4AX 5AX 7AX 8AX 14AX 
    *  15    0.017648  (   73,   73)  1AX 2AX 3AX 4AX 5AX 6AX 7AX 18AX 
    *  16    0.017273  (   81,   99)  1AX 2AX 3AX 4AX 5AX 6AA 7AX 8AB 19AA 21AB 
    *  17    0.017273  (   99,   81)  1AX 2AX 3AX 4AX 5AX 6AB 7AX 8AA 19AB 21AA 
    *  18   -0.017229  (    0,   73)  1AX 2AX 3AX 4AX 5AX 6AX 7AX 8AA 18AB 
    *  19   -0.017229  (   73,    0)  1AX 2AX 3AX 4AX 5AX 6AX 7AX 8AB 18AA 
    *  20    0.016967  (    0, 2202)  1AX 2AX 3AX 4AX 5AX 6AA 7AX 8AA 9AB 21AB 

		 "A good bug is a dead bug" 

			 - Starship Troopers

		 "I didn't write FORTRAN.  That's the problem."

			 - Edward Valeev
 MINTS: Wrapper to libmints.
   by Justin Turney

   Calculation information:
      Number of threads:                 1
      Number of atoms:                   6
      Number of AO shells:              26
      Number of SO shells:              26
      Number of primitives:             50
      Number of atomic orbitals:        52
      Number of basis functions:        52

      Number of irreps:                  1
      Integral cutoff                 0.00e+00
      Number of functions per irrep: [  52 ]

 OEINTS: Overlap, kinetic, potential, dipole, and quadrupole integrals
         stored in file 35.

      Computing two-electron integrals...done
      Computed 840553 non-zero two-electron integrals.
        Stored in file 33.


*** tstart() called on Berts-MacBook-Pro.local
*** at Wed Dec  6 22:49:53 2017


	Wfn Parameters:
	--------------------
	Wavefunction         = CCSD
	Number of irreps     = 1
	Number of MOs        = 52
	Number of active MOs = 52
	AO-Basis             = NONE
	Semicanonical        = false
	Reference            = RHF
	Print Level          = 1

	IRREP	# MOs	# FZDC	# DOCC	# SOCC	# VIRT	# FZVR
	-----	-----	------	------	------	------	------
	 A	   52	    0	    8	    0	    44	    0
	Transforming integrals...
	IWL integrals will be deleted.
	(OO|OO)...
	Presorting SO-basis two-electron integrals.
	Sorting File: SO Ints (nn|nn) nbuckets = 1
	Transforming the one-electron integrals and constructing Fock matrices
	Starting first half-transformation.
	Sorting half-transformed integrals.
	First half integral transformation complete.
	Starting second half-transformation.
	Two-electron integral transformation complete.
	(OO|OV)...
	Starting second half-transformation.
	Two-electron integral transformation complete.
	(OO|VV)...
	Starting second half-transformation.
	Two-electron integral transformation complete.
	(OV|OO)...
	Starting first half-transformation.
	Sorting half-transformed integrals.
	First half integral transformation complete.
	Starting second half-transformation.
	Two-electron integral transformation complete.
	(OV|OV)...
	Starting second half-transformation.
	Two-electron integral transformation complete.
	(OV|VV)...
	Starting second half-transformation.
	Two-electron integral transformation complete.
	(VV|OO)...
	Starting first half-transformation.
	Sorting half-transformed integrals.
	First half integral transformation complete.
	Starting second half-transformation.
	Two-electron integral transformation complete.
	(VV|OV)...
	Starting second half-transformation.
	Two-electron integral transformation complete.
	(VV|VV)...
	Starting second half-transformation.
	Two-electron integral transformation complete.
	Frozen core energy     =      0.00000000000000

	Size of irrep 0 of <ab|cd> integrals:      3.748 (MW) /     29.985 (MB)
	Total:                                     3.748 (MW) /     29.985 (MB)

	Size of irrep 0 of <ia|bc> integrals:      0.681 (MW) /      5.452 (MB)
	Total:                                     0.681 (MW) /      5.452 (MB)

	Size of irrep 0 of tijab amplitudes:       0.124 (MW) /      0.991 (MB)
	Total:                                     0.124 (MW) /      0.991 (MB)

	Nuclear Rep. energy          =     32.99569594220178
	SCF energy                   =    -77.96342216700566
	One-electron energy          =   -169.16645669408015
	Two-electron energy          =     58.20733858487277
	Reference energy             =    -77.96342216700560

*** tstop() called on Berts-MacBook-Pro.local at Wed Dec  6 22:49:54 2017
Module time:
	user time   =       0.28 seconds =       0.00 minutes
	system time =       0.38 seconds =       0.01 minutes
	total time  =          1 seconds =       0.02 minutes
Total time:
	user time   =      55.90 seconds =       0.93 minutes
	system time =       1.17 seconds =       0.02 minutes
	total time  =         58 seconds =       0.97 minutes

*** tstart() called on Berts-MacBook-Pro.local
*** at Wed Dec  6 22:49:54 2017

            **************************
            *                        *
            *        CCENERGY        *
            *                        *
            **************************

    Nuclear Rep. energy (wfn)     =   32.995695942201785
    SCF energy          (wfn)     =  -77.963422167005660
    Reference energy    (file100) =  -77.963422167005604

    Input parameters:
    -----------------
    Wave function   =     CCSD
    Reference wfn   =     RHF
    Brueckner       =     No
    Memory (Mbytes) =     8000.0
    Maxiter         =   1000000
    R_Convergence   =     1.0e-07
    E_Convergence   =     1.0e-07
    Restart         =     Yes
    DIIS            =     Yes
    AO Basis        =     NONE
    ABCD            =     NEW
    Cache Level     =     2
    Cache Type      =     LOW
    Print Level     =     1
    Num. of threads =     1
    # Amps to Print =     1000000
    Print MP2 Amps? =     No
    Analyze T2 Amps =     No
    Print Pair Ener =     No
    Local CC        =     No
    SCS-MP2         =     False
    SCSN-MP2        =     False
    SCS-CCSD        =     False

MP2 correlation energy -0.3099605111923229
                Solving CC Amplitude Equations
                ------------------------------
  Iter             Energy              RMS        T1Diag      D1Diag    New D1Diag    D2Diag
  ----     ---------------------    ---------   ----------  ----------  ----------   --------
     0        -0.309960511192323    0.000e+00    0.000000    0.000000    0.000000    0.170215
     1        -0.330573845475191    6.235e-02    0.007433    0.026958    0.026958    0.195291
     2        -0.342457985144465    3.249e-02    0.009600    0.035686    0.035686    0.227471
     3        -0.344674954799230    1.534e-02    0.011426    0.043127    0.043127    0.249110
     4        -0.344989186495233    6.600e-03    0.011716    0.044552    0.044552    0.261458
     5        -0.345044188586340    1.629e-03    0.011663    0.044377    0.044377    0.263244
     6        -0.345034965213676    4.766e-04    0.011634    0.044260    0.044260    0.263282
     7        -0.345035358492009    1.651e-04    0.011628    0.044231    0.044231    0.263321
     8        -0.345034943162515    4.260e-05    0.011629    0.044231    0.044231    0.263315
     9        -0.345034858057553    1.214e-05    0.011629    0.044233    0.044233    0.263316
    10        -0.345035274328402    3.775e-06    0.011629    0.044234    0.044234    0.263318
    11        -0.345035253833111    1.103e-06    0.011629    0.044234    0.044234    0.263318
    12        -0.345035274281880    2.781e-07    0.011629    0.044234    0.044234    0.263318
    13        -0.345035268476025    8.936e-08    0.011629    0.044234    0.044234    0.263318

    Iterations converged.


    Largest TIA Amplitudes:
              7   9         0.0312989989
              7   7         0.0272388571
              7  20         0.0082950934
              6   9         0.0075989792
              7  17        -0.0062312902
              7  29         0.0050588947
              4   4         0.0049227404
              5   5         0.0043120888
              3  13         0.0041754328
              5  21         0.0041731336
              7   8         0.0039796380
              6   7         0.0039648296
              6   8         0.0035926179
              3  23         0.0035472331
              4  22        -0.0030509016
              6  33         0.0026614216
              2  21         0.0026526823
              2  40         0.0025974588
              2  26        -0.0025779906
              2   2        -0.0025346521
              5  34        -0.0023191289
              4  15         0.0021218021
              7  24         0.0021204531
              4  32         0.0020828486
              6  17        -0.0020271840
              4  10        -0.0019496729
              7  33        -0.0019117493
              3  41         0.0018519211
              5  18        -0.0018465699
              3  27        -0.0016840594
              6  24        -0.0016000723
              2   5         0.0015675168
              3  35         0.0015328746
              4  25         0.0014614661
              4  38         0.0014049584
              6  20         0.0013325966
              3  36         0.0012982393
              5  11        -0.0012763939
              3   1        -0.0012761656
              7  39         0.0012385487
              4   0         0.0012383786
              5  14        -0.0011037108
              6  39         0.0011012680
              2  30        -0.0010859588
              2  11         0.0010458108
              5  37        -0.0009688667
              2  37         0.0009052781
              3  12         0.0008745727
              2  14         0.0008412212
              5   2        -0.0008329870
              5  26         0.0007129179
              3  19        -0.0006808595
              3  31        -0.0006521764
              4  28         0.0005850379
              1  13        -0.0005712694
              5  40         0.0004635493
              0  40        -0.0004548626
              1  41        -0.0003872176
              1   1        -0.0003304477
              0  11        -0.0003091690
              0  14        -0.0003015017
              2  34        -0.0002954404
              5  30         0.0002649171
              0   2        -0.0002635402
              1  12        -0.0002478857
              1  35        -0.0002312773
              0  37        -0.0001810529
              1   3        -0.0001539118
              3   3        -0.0001526392
              3  16         0.0001504628
              0   5        -0.0001503214
              1  27        -0.0001310019
              1  36        -0.0001280873
              2  42         0.0001200581
              0  21        -0.0001182550
              1  23        -0.0001044639
              4   6        -0.0001043291
              6  29        -0.0000991220
              1  43         0.0000965357
              0  42         0.0000960900
              3  43         0.0000909711
              1  16        -0.0000496554
              0  34        -0.0000427960
              5  42         0.0000171262
              1  31        -0.0000062309
              0  18        -0.0000057658
              0  26         0.0000034467
              0  30         0.0000020805
              1  19        -0.0000014257
              2  18         0.0000005314

    Largest TIjAb Amplitudes:
      7   7   0   0        -0.1935454871
      7   7   0  10        -0.0608628812
      7   7  10   0        -0.0608628812
      6   7   0   0        -0.0401047926
      7   6   0   0        -0.0401047926
      5   5  12  12        -0.0314759249
      6   6   0   0        -0.0272137571
      7   7  10  10        -0.0254175031
      5   7  12   0        -0.0249504241
      7   5   0  12        -0.0249504241
      6   7   0  10        -0.0228342514
      7   6  10   0        -0.0228342514
      4   4   4   4        -0.0225650713
      3   3   0   0        -0.0218903214
      5   5   5   5        -0.0218096047
      5   7  12  10        -0.0201133031
      7   5  10  12        -0.0201133031
      7   7   9   9        -0.0199690252
      6   7   0   4        -0.0197720688
      7   6   4   0        -0.0197720688
      6   7  10   0        -0.0193994404
      7   6   0  10        -0.0193994404
      2   7   0  12        -0.0188439715
      7   2  12   0        -0.0188439715
      6   6   7   7        -0.0187878299
      3   7   2   0        -0.0184046476
      7   3   0   2        -0.0184046476
      3   7   0   2        -0.0175168696
      7   3   2   0        -0.0175168696
      2   7   0   3        -0.0173519502
      7   2   3   0        -0.0173519502
      2   7  12   0        -0.0172446255
      7   2   0  12        -0.0172446255
      4   6   4   7        -0.0167928457
      6   4   7   4        -0.0167928457
      2   7   1   0        -0.0166566109
      7   2   0   1        -0.0166566109
      4   7   9   0         0.0163906597
      7   4   0   9         0.0163906597
      5   7   5   9         0.0162982150
      7   5   9   5         0.0162982150
      4   7   0   9         0.0162050363
      7   4   9   0         0.0162050363
      4   5   4   5         0.0161224734
      5   4   5   4         0.0161224734
      6   6   4   4        -0.0160542991
      6   6   3   3        -0.0159205299
      5   6   5   7         0.0157543481
      6   5   7   5         0.0157543481
      2   7   0   1        -0.0156535576
      7   2   1   0        -0.0156535576
      7   7   0   6         0.0155063380
      7   7   6   0         0.0155063380
      4   7   4   9        -0.0154585267
      7   4   9   4        -0.0154585267
      5   5   0   0        -0.0147777829
      2   2  12  12        -0.0145891384
      3   7   0  11         0.0144506377
      7   3  11   0         0.0144506377
      6   7   7   9        -0.0144388274
      7   6   9   7        -0.0144388274
      4   6   2   3        -0.0143944350
      6   4   3   2        -0.0143944350
      4   4   2   2        -0.0143910578
      7   7  11  11        -0.0143072857
      4   6   4   9         0.0142895529
      6   4   9   4         0.0142895529
      7   7   4   4        -0.0142383066
      3   5   1   5         0.0139330146
      5   3   5   1         0.0139330146
      3   7   0   5        -0.0138031527
      7   3   5   0        -0.0138031527
      5   5   4   4        -0.0137660068
      5   6  12   0        -0.0137159952
      6   5   0  12        -0.0137159952
      4   4   6   6        -0.0136234820
      4   4   9   9        -0.0135122080
      2   7   3   0        -0.0134979463
      7   2   0   3        -0.0134979463
      3   7   1   9        -0.0134931801
      7   3   9   1        -0.0134931801
      4   7   6   9        -0.0134445420
      7   4   9   6        -0.0134445420
      6   7  10  10        -0.0134301613
      7   6  10  10        -0.0134301613
      4   4   3   3        -0.0132145372
      3   5   2  12        -0.0130889682
      5   3  12   2        -0.0130889682
      3   7   0  14        -0.0129039379
      7   3  14   0        -0.0129039379
      3   3  12  12        -0.0128763930
      4   4   0   0        -0.0128677082
      2   2   0   0        -0.0125937108
      3   6   1   7        -0.0124570803
      6   3   7   1        -0.0124570803
      3   7   5   0        -0.0124433384
      7   3   0   5        -0.0124433384
      2   5  13  12        -0.0123934284
      5   2  12  13        -0.0123934284
      5   7   0   3         0.0123781372
      7   5   3   0         0.0123781372
      3   6   0  18        -0.0123205245
      6   3  18   0        -0.0123205245
      3   4   1   4        -0.0122925321
      4   3   4   1        -0.0122925321
      5   6   4   3         0.0121592011
      6   5   3   4         0.0121592011
      6   6   2   2        -0.0121217078
      2   7   1  10        -0.0120793274
      7   2  10   1        -0.0120793274
      3   3   2   2        -0.0120510463
      2   7  13   0        -0.0119965018
      7   2   0  13        -0.0119965018
      4   6   6   7        -0.0119413671
      6   4   7   6        -0.0119413671
      2   7  13  10        -0.0118402702
      7   2  10  13        -0.0118402702
      4   6   3   2        -0.0118219330
      6   4   2   3        -0.0118219330
      2   7  12  10        -0.0117650520
      7   2  10  12        -0.0117650520
      3   3   1   1        -0.0115877597
      4   6   9   4         0.0114915261
      6   4   4   9         0.0114915261
      7   7   3   3        -0.0109199659
      5   5   2   2        -0.0108830209
      4   4   0   4         0.0108234094
      4   4   4   0         0.0108234094
      7   7  12  12        -0.0108054924
      5   6  12   6        -0.0107895628
      6   5   6  12        -0.0107895628
      3   3   5   5        -0.0107826681
      5   7   3   0         0.0107231220
      7   5   0   3         0.0107231220
      2   7   0  16        -0.0107052303
      7   2  16   0        -0.0107052303
      4   7   9  10         0.0106819661
      7   4  10   9         0.0106819661
      4   5   6   5         0.0106155710
      5   4   5   6         0.0106155710
      3   3  14  14        -0.0104724694
      5   6  12  10        -0.0104291070
      6   5  10  12        -0.0104291070
      3   4  13   4        -0.0104173701
      4   3   4  13        -0.0104173701
      3   6  13   7        -0.0103902378
      6   3   7  13        -0.0103902378
      3   5  13   5         0.0103897601
      5   3   5  13         0.0103897601
      4   6   4  17        -0.0102217313
      6   4  17   4        -0.0102217313
      6   7   7   7        -0.0102019453
      7   6   7   7        -0.0102019453
      3   7  14   0        -0.0101673951
      7   3   0  14        -0.0101673951
      6   6  14  14        -0.0101631821
      3   7   2  10        -0.0101552686
      7   3  10   2        -0.0101552686
      6   7   4   4         0.0101441374
      7   6   4   4         0.0101441374
      3   7  13   9        -0.0101152363
      7   3   9  13        -0.0101152363
      4   4  18  18        -0.0100637109
      6   6   7   9         0.0100366467
      6   6   9   7         0.0100366467
      2   5   1  12        -0.0099668295
      5   2  12   1        -0.0099668295
      3   4   0  19         0.0099531277
      4   3  19   0         0.0099531277
      6   6  18  18        -0.0099175370
      6   7   9   9         0.0098976452
      7   6   9   9         0.0098976452
      3   5   5  12        -0.0098950151
      5   3  12   5        -0.0098950151
      6   7   0  15        -0.0098925970
      7   6  15   0        -0.0098925970
      3   4   0   3         0.0098904669
      4   3   3   0         0.0098904669
      2   4   0  18        -0.0098869725
      4   2  18   0        -0.0098869725
      7   7   6  10         0.0098337825
      7   7  10   6         0.0098337825
      3   5  12   2        -0.0097797187
      5   3   2  12        -0.0097797187
      5   5  15  15        -0.0097678119
      4   5   9  12         0.0097497003
      5   4  12   9         0.0097497003
      6   7   6   0        -0.0096854647
      7   6   0   6        -0.0096854647
      6   6  16  16        -0.0096612118
      4   4  15  15        -0.0096552480
      3   7   5  10        -0.0096511535
      7   3  10   5        -0.0096511535
      4   4   4  15        -0.0096017793
      4   4  15   4        -0.0096017793
      4   6  14   3        -0.0095773047
      6   4   3  14        -0.0095773047
      4   4  14  14        -0.0095652620
      3   5   3   2         0.0095320429
      5   3   2   3         0.0095320429
      2   2  13  13        -0.0094415238
      3   5   2   3         0.0094378715
      5   3   3   2         0.0094378715
      5   6   5   9        -0.0094367144
      6   5   9   5        -0.0094367144
      3   3   3   3        -0.0094005613
      5   5  20  20        -0.0094000537
      4   5   2   4         0.0093925530
      5   4   4   2         0.0093925530
      6   6  17  17        -0.0093608142
      4   4  19  19        -0.0093337670
      7   7   1   1        -0.0093308808
      6   6  10  10        -0.0092955348
      4   6  15  17        -0.0092953664
      6   4  17  15        -0.0092953664
      4   6   7   4        -0.0092710144
      6   4   4   7        -0.0092710144
      7   7   7   7        -0.0092698253
      6   6   0  10        -0.0091948485
      6   6  10   0        -0.0091948485
      4   6   3  14        -0.0091877947
      6   4  14   3        -0.0091877947
      3   7   0  26         0.0091425786
      7   3  26   0         0.0091425786
      4   7   7   0        -0.0091361852
      7   4   0   7        -0.0091361852
      4   6  19  18         0.0091186538
      6   4  18  19         0.0091186538
      3   3   2  14        -0.0089919745
      3   3  14   2        -0.0089919745
      3   7   3   9        -0.0089470460
      7   3   9   3        -0.0089470460
      4   4  16  16        -0.0089132511
      3   5   0  20         0.0088896923
      5   3  20   0         0.0088896923
      5   7   5   7         0.0088719562
      7   5   7   5         0.0088719562
      4   6  14  16        -0.0088707979
      6   4  16  14        -0.0088707979
      2   5  12  12        -0.0088554996
      5   2  12  12        -0.0088554996
      4   6  16  14        -0.0088222634
      6   4  14  16        -0.0088222634
      2   2   4   4        -0.0088060126
      5   7  12   6         0.0087511486
      7   5   6  12         0.0087511486
      4   4   7   9         0.0087434535
      4   4   9   7         0.0087434535
      6   6   9   9        -0.0087113033
      3   4   5   9         0.0086658393
      4   3   9   5         0.0086658393
      2   2   0  10        -0.0085880710
      2   2  10   0        -0.0085880710
      2   5  11   5         0.0085818882
      5   2   5  11         0.0085818882
      2   4  13   9         0.0085471994
      4   2   9  13         0.0085471994
      5   5   4  15        -0.0085396277
      5   5  15   4        -0.0085396277
      2   7   2   9        -0.0085356537
      7   2   9   2        -0.0085356537
      2   2  12  13        -0.0085170252
      2   2  13  12        -0.0085170252
      2   7  10  12        -0.0085125611
      7   2  12  10        -0.0085125611
      5   6  15  16         0.0084889125
      6   5  16  15         0.0084889125
      4   5   8  12        -0.0084802333
      5   4  12   8        -0.0084802333
      6   6  19  19        -0.0084780545
      6   6  15  15        -0.0084346291
      3   5   0  17        -0.0084324171
      5   3  17   0        -0.0084324171
      3   3   0  10        -0.0084065627
      3   3  10   0        -0.0084065627
      4   4   4   6        -0.0083565519
      4   4   6   4        -0.0083565519
      2   7   0  13        -0.0083395510
      7   2  13   0        -0.0083395510
      3   6   1   9         0.0082885671
      6   3   9   1         0.0082885671
      3   5  11  12        -0.0082869343
      5   3  12  11        -0.0082869343
      5   5   3   3        -0.0082769529
      3   4   1   6        -0.0082143371
      4   3   6   1        -0.0082143371
      3   3  13  13        -0.0082078688
      5   5  21  21        -0.0081154833
      7   7   7   9        -0.0080843929
      7   7   9   7        -0.0080843929
      2   2  10  10        -0.0080290952
      3   3   1  13        -0.0080186781
      3   3  13   1        -0.0080186781
      5   7   0  16         0.0079282245
      7   5  16   0         0.0079282245
      4   4   7   7        -0.0079208237
      6   6   3  16        -0.0079083227
      6   6  16   3        -0.0079083227
      2   6   0  19         0.0079013250
      6   2  19   0         0.0079013250
      2   5   0  22        -0.0078973604
      5   2  22   0        -0.0078973604
      4   7   9   4        -0.0078971015
      7   4   4   9        -0.0078971015
      5   5  17  17        -0.0078679743
      5   5   3  12         0.0078503584
      5   5  12   3         0.0078503584
      2   7  10   1        -0.0078333368
      7   2   1  10        -0.0078333368
      5   5   1   1        -0.0078152244
      3   6   5   4        -0.0078143076
      6   3   4   5        -0.0078143076
      4   4  17  17        -0.0078125850
      6   6   4  10        -0.0077675654
      6   6  10   4        -0.0077675654
      4   7   4  20         0.0077641726
      7   4  20   4         0.0077641726
      6   7   6  10        -0.0077535648
      7   6  10   6        -0.0077535648
      3   5   5   1         0.0077520699
      5   3   1   5         0.0077520699
      5   7   0  12        -0.0077380657
      7   5  12   0        -0.0077380657
      3   3   9   9        -0.0077379351
      2   5   2   5         0.0077322974
      5   2   5   2         0.0077322974
      4   7   3  11        -0.0077187834
      7   4  11   3        -0.0077187834
      4   4   2  14        -0.0077037062
      4   4  14   2        -0.0077037062
      6   6   6   6        -0.0076942467
      5   6   4  16         0.0076733336
      6   5  16   4         0.0076733336
      2   4   1   9         0.0076554114
      4   2   9   1         0.0076554114
      6   7   4   0        -0.0076319234
      7   6   0   4        -0.0076319234
      4   6  17   4        -0.0076098125
      6   4   4  17        -0.0076098125
      2   4  11   6        -0.0075907813
      4   2   6  11        -0.0075907813
      3   5   3  14         0.0075856013
      5   3  14   3         0.0075856013
      4   6  18  19         0.0075376353
      6   4  19  18         0.0075376353
      4   6  17  15        -0.0074875921
      6   4  15  17        -0.0074875921
      6   7  22   0        -0.0074756765
      7   6   0  22        -0.0074756765
      3   5  14   3         0.0074645344
      5   3   3  14         0.0074645344
      6   6   2  14        -0.0074599369
      6   6  14   2        -0.0074599369
      2   7  11   9        -0.0074513391
      7   2   9  11        -0.0074513391
      3   3   2   5        -0.0074420136
      3   3   5   2        -0.0074420136
      4   5   4  21         0.0074374781
      5   4  21   4         0.0074374781
      5   5  14  14        -0.0074293234
      2   6   2   7        -0.0074271825
      6   2   7   2        -0.0074271825
      3   3   4   4        -0.0074152575
      3   3  16  16        -0.0074027854
      3   5   0   8         0.0073933284
      5   3   8   0         0.0073933284
      2   2  11  11        -0.0073859777
      4   5  16  17         0.0073681736
      5   4  17  16         0.0073681736
      4   5   7  12        -0.0073456368
      5   4  12   7        -0.0073456368
      4   7   4   8         0.0073385017
      7   4   8   4         0.0073385017
      2   2   7   7        -0.0072944115
      2   3   0   9        -0.0072674834
      3   2   9   0        -0.0072674834
      4   5  14   4         0.0072635806
      5   4   4  14         0.0072635806
      4   6   6   8        -0.0072418202
      6   4   8   6        -0.0072418202
      5   6  15   3         0.0072291862
      6   5   3  15         0.0072291862
      6   6   4  15        -0.0072283719
      6   6  15   4        -0.0072283719
      5   6  20  18         0.0071945408
      6   5  18  20         0.0071945408
      2   6  11   7        -0.0071781400
      6   2   7  11        -0.0071781400
      3   6   4   2        -0.0071744254
      6   3   2   4        -0.0071744254
      2   6  13   4        -0.0071625580
      6   2   4  13        -0.0071625580
      7   7  19  19        -0.0071434295
      3   7   9   1        -0.0071251060
      7   3   1   9        -0.0071251060
      3   5  14  12        -0.0070935662
      5   3  12  14        -0.0070935662
      4   4   3  16        -0.0070739542
      4   4  16   3        -0.0070739542
      7   7   2   2        -0.0070696583
      5   5   2  14        -0.0070618103
      5   5  14   2        -0.0070618103
      2   6  13  10        -0.0070610889
      6   2  10  13        -0.0070610889
      2   5  12  13        -0.0070203237
      5   2  13  12        -0.0070203237
      3   6  15  14        -0.0069661997
      6   3  14  15        -0.0069661997
      6   6  11  11        -0.0069408693
      2   5  12  27        -0.0069407748
      5   2  27  12        -0.0069407748
      4   5  14  15         0.0069275250
      5   4  15  14         0.0069275250
      2   4   2   6        -0.0069156803
      4   2   6   2        -0.0069156803
      4   5  19  20        -0.0069048699
      5   4  20  19        -0.0069048699
      3   5   3   5         0.0068994452
      5   3   5   3         0.0068994452
      7   7   1   3        -0.0068926249
      7   7   3   1        -0.0068926249
      3   7   9   3        -0.0068873718
      7   3   3   9        -0.0068873718
      2   6   1  10        -0.0068737495
      6   2  10   1        -0.0068737495
      3   5  14  16         0.0068736862
      5   3  16  14         0.0068736862
      5   7   2   9         0.0067995756
      7   5   9   2         0.0067995756
      4   7   7  10        -0.0067810424
      7   4  10   7        -0.0067810424
      2   4  12   9         0.0067798510
      4   2   9  12         0.0067798510
      3   4  13   6        -0.0067647298
      4   3   6  13        -0.0067647298
      3   3  10  10        -0.0067487724
      4   7   0  17        -0.0067446424
      7   4  17   0        -0.0067446424
      5   5  11  11        -0.0067288059
      5   7   4  19         0.0067254551
      7   5  19   4         0.0067254551
      7   7   8   8        -0.0067192109
      3   6   5  10        -0.0067168751
      6   3  10   5        -0.0067168751
      4   6   7   6        -0.0067128376
      6   4   6   7        -0.0067128376
      2   2   1  13        -0.0067051175
      2   2  13   1        -0.0067051175
      3   5  16  14         0.0066763335
      5   3  14  16         0.0066763335
      6   6   1   1        -0.0066641561
      2   7   0  23        -0.0066593916
      7   2  23   0        -0.0066593916
      3   4   0  16         0.0066537669
      4   3  16   0         0.0066537669
      3   7  10   2        -0.0066365512
      7   3   2  10        -0.0066365512
      2   2  15  15        -0.0065780488
      5   5  22  22        -0.0065735548
      3   6  18   0        -0.0065590378
      6   3   0  18        -0.0065590378
      4   7   3   2         0.0065462420
      7   4   2   3         0.0065462420
      4   6   0  17         0.0065252634
      6   4  17   0         0.0065252634
      2   2   4  15        -0.0064965521
      2   2  15   4        -0.0064965521
      6   6   6  10        -0.0064699170
      6   6  10   6        -0.0064699170
      2   7  10   3        -0.0064636199
      7   2   3  10        -0.0064636199
      4   7   6   7        -0.0064630365
      7   4   7   6        -0.0064630365
      5   6  17  14         0.0064616983
      6   5  14  17         0.0064616983
      4   7   8  10        -0.0064389249
      7   4  10   8        -0.0064389249
      3   3  19  19        -0.0064307434
      4   4   0  15         0.0064276783
      4   4  15   0         0.0064276783
      4   6   9  10         0.0064266505
      6   4  10   9         0.0064266505
      3   6   3   7        -0.0064262589
      6   3   7   3        -0.0064262589
      5   5   0   4         0.0064208058
      5   5   4   0         0.0064208058
      4   6   7  10        -0.0064005809
      6   4  10   7        -0.0064005809
      7   7  18  18        -0.0063934038
      2   7  10  13        -0.0063826978
      7   2  13  10        -0.0063826978
      3   4   4  13        -0.0063730858
      4   3  13   4        -0.0063730858
      3   4   2   9         0.0063597793
      4   3   9   2         0.0063597793
      5   7   1   4        -0.0063594007
      7   5   4   1        -0.0063594007
      5   7  15  19         0.0063410408
      7   5  19  15         0.0063410408
      2   3   2   3        -0.0063250302
      3   2   3   2        -0.0063250302
      3   3  17  17        -0.0063236942
      7   7   1  12        -0.0063192291
      7   7  12   1        -0.0063192291
      3   5  12  21         0.0063140895
      5   3  21  12         0.0063140895
      3   4   5   7        -0.0063032770
      4   3   7   5        -0.0063032770
      4   5   3  17         0.0063010770
      5   4  17   3         0.0063010770
      4   6   9   6         0.0062984331
      6   4   6   9         0.0062984331
      5   7   5   8        -0.0062912105
      7   5   8   5        -0.0062912105
      6   7   8   9        -0.0062845183
      7   6   9   8        -0.0062845183
      3   3  18  18        -0.0062710515
      4   7   9   6        -0.0062702386
      7   4   6   9        -0.0062702386
      4   5  14   0        -0.0062623667
      5   4   0  14        -0.0062623667
      2   2   1  12        -0.0062549292
      2   2  12   1        -0.0062549292
      3   6  13   9         0.0062360088
      6   3   9  13         0.0062360088
      7   7   5   5        -0.0062182969
      3   3   3  16        -0.0062112552
      3   3  16   3        -0.0062112552
      3   4  17  14        -0.0061871934
      4   3  14  17        -0.0061871934
      7   7  20  20        -0.0061834254
      5   6   1   4         0.0061474297
      6   5   4   1         0.0061474297
      3   3  15  15        -0.0061356439
      2   3   1   5        -0.0061142675
      3   2   5   1        -0.0061142675
      7   7  13  13        -0.0060763609
      4   5   3   9        -0.0060739624
      5   4   9   3        -0.0060739624
      2   2   1   1        -0.0060563941
      3   4   3   4        -0.0060553330
      4   3   4   3        -0.0060553330
      4   5  15  11        -0.0060501069
      5   4  11  15        -0.0060501069
      7   7   0  15        -0.0060465010
      7   7  15   0        -0.0060465010
      2   5  27  12        -0.0060420426
      5   2  12  27        -0.0060420426
      7   7   8   9         0.0060230760
      7   7   9   8         0.0060230760
      5   5   5  21        -0.0060147546
      5   5  21   5        -0.0060147546
      3   4  15  16        -0.0060035678
      4   3  16  15        -0.0060035678
      2   2   9   9        -0.0060032209
      2   7  11   7        -0.0059999551
      7   2   7  11        -0.0059999551
      2   6  12  10        -0.0059932896
      6   2  10  12        -0.0059932896
      4   6   8   0        -0.0059925749
      6   4   0   8        -0.0059925749
      3   7  12  20         0.0059861787
      7   3  20  12         0.0059861787
      3   6   4   5        -0.0059729369
      6   3   5   4        -0.0059729369
      2   4  13   7        -0.0059713366
      4   2   7  13        -0.0059713366
      3   4   4   3        -0.0059590937
      4   3   3   4        -0.0059590937
      3   4  19   0         0.0059561603
      4   3   0  19         0.0059561603
      5   5   7   7        -0.0059539274
      5   7  13   0        -0.0059514109
      7   5   0  13        -0.0059514109
      7   7   3  12        -0.0059468533
      7   7  12   3        -0.0059468533
      2   2  20  20        -0.0059451078
      4   4  11  11        -0.0059440711
      2   6   4   1        -0.0059429618
      6   2   1   4        -0.0059429618
      3   5   0   7        -0.0059392238
      5   3   7   0        -0.0059392238
      3   7  14  10        -0.0059264633
      7   3  10  14        -0.0059264633
      5   7  16   0         0.0059256316
      7   5   0  16         0.0059256316
      5   7  12  15        -0.0059213761
      7   5  15  12        -0.0059213761
      4   7  15  20         0.0059189029
      7   4  20  15         0.0059189029
      2   4  18   0        -0.0059169791
      4   2   0  18        -0.0059169791
      2   7  23   0        -0.0059153980
      7   2   0  23        -0.0059153980
      4   7  18  12        -0.0059150845
      7   4  12  18        -0.0059150845
      6   6  13  13        -0.0059027509
      6   7   4  10        -0.0058997502
      7   6  10   4        -0.0058997502
      3   3  11  11        -0.0058934806
      3   6   2   6        -0.0058782288
      6   3   6   2        -0.0058782288
      2   7   3  10        -0.0058776702
      7   2  10   3        -0.0058776702
      4   4   1   1        -0.0058776316
      7   7   6   6        -0.0058685097
      4   6  11  16         0.0058616811
      6   4  16  11         0.0058616811
      2   6   4  13        -0.0058511515
      6   2  13   4        -0.0058511515
      4   5   2   0        -0.0058421039
      5   4   0   2        -0.0058421039
      2   2  18  18        -0.0058408747
      3   5   0   9         0.0058381338
      5   3   9   0         0.0058381338
      4   7   8   0        -0.0058373172
      7   4   0   8        -0.0058373172
      4   7  18  19        -0.0058338941
      7   4  19  18        -0.0058338941
      4   5   3   7         0.0058217894
      5   4   7   3         0.0058217894
      5   6   0   3        -0.0058163089
      6   5   3   0        -0.0058163089
      2   6   1   4        -0.0058161123
      6   2   4   1        -0.0058161123
      5   6  13   0        -0.0058154678
      6   5   0  13        -0.0058154678
      4   5   0   5        -0.0058154301
      5   4   5   0        -0.0058154301
      4   7   4   7        -0.0058143283
      7   4   7   4        -0.0058143283
      4   6  16  11         0.0058048663
      6   4  11  16         0.0058048663
      3   6   7   1        -0.0057888393
      6   3   1   7        -0.0057888393
      4   6  17   0         0.0057880061
      6   4   0  17         0.0057880061
      3   3  20  20        -0.0057855010
      3   7   1   7        -0.0057769590
      7   3   7   1        -0.0057769590
      4   7   0  20        -0.0057201536
      7   4  20   0        -0.0057201536
      3   3   3  12         0.0057148173
      3   3  12   3         0.0057148173
      2   3   3   2        -0.0057124156
      3   2   2   3        -0.0057124156
      5   5  13  13        -0.0057064824
      5   5   0  15         0.0057022366
      5   5  15   0         0.0057022366
      3   6   4  14        -0.0056902976
      6   3  14   4        -0.0056902976
      4   4  13  13        -0.0056873366
      2   3  13   5        -0.0056871826
      3   2   5  13        -0.0056871826
      4   4   9  17         0.0056806085
      4   4  17   9         0.0056806085
      4   5  18  22        -0.0056716999
      5   4  22  18        -0.0056716999
      3   4   2  24        -0.0056522143
      4   3  24   2        -0.0056522143
      4   6   6   9         0.0056404762
      6   4   9   6         0.0056404762
      6   7  17  20         0.0056390317
      7   6  20  17         0.0056390317
      6   6   8   8        -0.0056368092
      3   7  13   7        -0.0056359281
      7   3   7  13        -0.0056359281
      3   5  12  14        -0.0056325950
      5   3  14  12        -0.0056325950
      5   7  10  12        -0.0056100613
      7   5  12  10        -0.0056100613
      4   6   8   6        -0.0055823314
      6   4   6   8        -0.0055823314
      3   6   2  10        -0.0055796599
      6   3  10   2        -0.0055796599
      6   6   7  17        -0.0055796195
      6   6  17   7        -0.0055796195
      2   4   2   4        -0.0055774997
      4   2   4   2        -0.0055774997
      2   3   7  10        -0.0055688174
      3   2  10   7        -0.0055688174
      6   6   0   6        -0.0055659040
      6   6   6   0        -0.0055659040
      7   7  26  26        -0.0055614139
      3   4   4   1        -0.0055545156
      4   3   1   4        -0.0055545156
      3   3   5  14        -0.0055544832
      3   3  14   5        -0.0055544832
      3   6   2   4        -0.0055533974
      6   3   4   2        -0.0055533974
      5   6  11  17        -0.0055353323
      6   5  17  11        -0.0055353323
      3   3  21  21        -0.0055131033
      6   6  24  24        -0.0055005878
      2   7  16   0        -0.0054910560
      7   2   0  16        -0.0054910560
      3   5   2  16         0.0054788291
      5   3  16   2         0.0054788291
      2   2  17  17        -0.0054788090
      2   3   2  13        -0.0054767846
      3   2  13   2        -0.0054767846
      2   5   2   2         0.0054756567
      5   2   2   2         0.0054756567
      3   4   2   7        -0.0054736610
      4   3   7   2        -0.0054736610
      5   6   3   4         0.0054700949
      6   5   4   3         0.0054700949
      2   6   1   0        -0.0054691128
      6   2   0   1        -0.0054691128
      6   6  12  12        -0.0054669185
      3   6   5   6        -0.0054595500
      6   3   6   5        -0.0054595500
      2   6   4  12        -0.0054513948
      6   2  12   4        -0.0054513948
      3   6  14   4        -0.0054302181
      6   3   4  14        -0.0054302181
      3   6  17  16        -0.0054270520
      6   3  16  17        -0.0054270520
      2   4   9   1         0.0054255393
      4   2   1   9         0.0054255393
      3   4   9   5         0.0054250439
      4   3   5   9         0.0054250439
      2   3  18  19         0.0054209335
      3   2  19  18         0.0054209335
      3   5  10  20         0.0054125378
      5   3  20  10         0.0054125378
      6   6  23  23        -0.0054108741
      4   4  12  12        -0.0054072496
      4   7   3   5         0.0054035771
      7   4   5   3         0.0054035771
      3   6   7  13        -0.0054034290
      6   3  13   7        -0.0054034290
      2   4   1   7        -0.0053895796
      4   2   7   1        -0.0053895796
      5   7  21  20        -0.0053886278
      7   5  20  21        -0.0053886278
      2   6  12   4        -0.0053767503
      6   2   4  12        -0.0053767503
      5   7  20  26        -0.0053711519
      7   5  26  20        -0.0053711519
      5   5  16  16        -0.0053547027
      3   7   1   8         0.0053480072
      7   3   8   1         0.0053480072
      2   6  13   6        -0.0053401422
      6   2   6  13        -0.0053401422
      3   5  17   0        -0.0053103096
      5   3   0  17        -0.0053103096
      5   7   9   5         0.0052952186
      7   5   5   9         0.0052952186
      3   6  12  17        -0.0052644105
      6   3  17  12        -0.0052644105
      2   3  14   3        -0.0052635464
      3   2   3  14        -0.0052635464
      2   3   2   1        -0.0052532912
      3   2   1   2        -0.0052532912
      3   7  10  14        -0.0052524103
      7   3  14  10        -0.0052524103
      2   3   3  14        -0.0052475519
      3   2  14   3        -0.0052475519
      3   7  10  26         0.0052373563
      7   3  26  10         0.0052373563
      5   5   3  16        -0.0052345265
      5   5  16   3        -0.0052345265
      3   6  12  24         0.0052300327
      6   3  24  12         0.0052300327
      4   6   2  16        -0.0052228682
      6   4  16   2        -0.0052228682
      3   4   3   6        -0.0052212149
      4   3   6   3        -0.0052212149
      3   6  14  15        -0.0052192141
      6   3  15  14        -0.0052192141
      4   4  24  24        -0.0052131190
      3   3   3  13        -0.0052125552
      3   3  13   3        -0.0052125552
      6   6  21  21        -0.0052018617
      7   7   3  16        -0.0051787813
      7   7  16   3        -0.0051787813
      6   6   3  13        -0.0051751277
      6   6  13   3        -0.0051751277
      5   5  27  27        -0.0051749610
      6   6   7   8        -0.0051685726
      6   6   8   7        -0.0051685726
      5   6  16  15         0.0051665365
      6   5  15  16         0.0051665365
      2   6  12   0        -0.0051663997
      6   2   0  12        -0.0051663997
      4   4  21  21        -0.0051650063
      3   6   3  24        -0.0051618461
      6   3  24   3        -0.0051618461
      5   7  23   0        -0.0051604377
      7   5   0  23        -0.0051604377
      3   5   8   0         0.0051541812
      5   3   0   8         0.0051541812
      3   4  12  15        -0.0051535282
      4   3  15  12        -0.0051535282
      4   5  15  21         0.0051510376
      5   4  21  15         0.0051510376
      3   7  10   5        -0.0051456475
      7   3   5  10        -0.0051456475
      4   6   2  13        -0.0051333756
      6   4  13   2        -0.0051333756
      3   6  20  19         0.0051153613
      6   3  19  20         0.0051153613
      2   2   5   5        -0.0051119050
      3   6  21   4        -0.0051007265
      6   3   4  21        -0.0051007265
      2   3  13   2        -0.0050926683
      3   2   2  13        -0.0050926683
      2   4   9  13         0.0050752610
      4   2  13   9         0.0050752610
      2   5   3   3         0.0050677765
      5   2   3   3         0.0050677765
      7   7   0  28        -0.0050674503
      7   7  28   0        -0.0050674503
      4   6   0   9        -0.0050591442
      6   4   9   0        -0.0050591442
      6   7   3  19        -0.0050557487
      7   6  19   3        -0.0050557487
      2   5   5  11         0.0050497828
      5   2  11   5         0.0050497828
      5   7   4  12         0.0050371372
      7   5  12   4         0.0050371372
      6   6   5   5        -0.0050349478
      4   7   3  14         0.0050345796
      7   4  14   3         0.0050345796
      2   3   9   0        -0.0050335775
      3   2   0   9        -0.0050335775
      2   6   1   6        -0.0050327999
      6   2   6   1        -0.0050327999
      3   5  16   2         0.0050246066
      5   3   2  16         0.0050246066
      2   7  14   9        -0.0050205770
      7   2   9  14        -0.0050205770
      4   5  11  15        -0.0050204033
      5   4  15  11        -0.0050204033
      3   4  14  17        -0.0050182168
      4   3  17  14        -0.0050182168
      2   3  19  18         0.0050178610
      3   2  18  19         0.0050178610
      6   7  18  11         0.0050141768
      7   6  11  18         0.0050141768
      6   7   2  11        -0.0050139928
      7   6  11   2        -0.0050139928
      5   5  11  21         0.0050116563
      5   5  21  11         0.0050116563
      4   5   6   2         0.0050108962
      5   4   2   6         0.0050108962
      4   4  23  23        -0.0050097140
      3   3   0  22         0.0050047288
      3   3  22   0         0.0050047288
      3   4   9   2         0.0049990749
      4   3   2   9         0.0049990749
      3   7  11  10        -0.0049946084
      7   3  10  11        -0.0049946084
      2   5   4  15        -0.0049884231
      5   2  15   4        -0.0049884231
      5   6  21  17         0.0049795817
      6   5  17  21         0.0049795817
      2   3   0  17         0.0049682118
      3   2  17   0         0.0049682118
      2   2   2   2        -0.0049638841
      3   6  10  18        -0.0049622228
      6   3  18  10        -0.0049622228
      6   7  18  26         0.0049484280
      7   6  26  18         0.0049484280
      5   6   2  24         0.0049436153
      6   5  24   2         0.0049436153
      2   4  12  17        -0.0049409816
      4   2  17  12        -0.0049409816
      6   6  25  25        -0.0049351704
      3   3  24  24        -0.0049316307
      2   5   7  20         0.0049253267
      5   2  20   7         0.0049253267
      3   3   7   7        -0.0049244700
      3   3  22  22        -0.0049177246
      7   7   1  13        -0.0049148213
      7   7  13   1        -0.0049148213
      5   5   1  13        -0.0049147984
      5   5  13   1        -0.0049147984
      2   2  21  21        -0.0049080520
      5   7   9   2         0.0048898136
      7   5   2   9         0.0048898136
      6   6  11  14         0.0048834331
      6   6  14  11         0.0048834331
      5   6   0  19        -0.0048808500
      6   5  19   0        -0.0048808500
      4   7   2   3         0.0048584877
      7   4   3   2         0.0048584877
      2   3   4   9         0.0048495752
      3   2   9   4         0.0048495752
      3   5  20   0         0.0048281601
      5   3   0  20         0.0048281601
      3   5   5   3         0.0048229173
      5   3   3   5         0.0048229173
      4   6  15   7        -0.0048188335
      6   4   7  15        -0.0048188335
      3   6  15  11         0.0048166177
      6   3  11  15         0.0048166177
      3   6  11   6        -0.0048152331
      6   3   6  11        -0.0048152331
      3   7   0  21        -0.0047910491
      7   3  21   0        -0.0047910491
      6   7   9   8        -0.0047894259
      7   6   8   9        -0.0047894259
      4   7  17   0        -0.0047869136
      7   4   0  17        -0.0047869136
      6   7  14  11        -0.0047866649
      7   6  11  14        -0.0047866649
      7   7   5  11         0.0047715880
      7   7  11   5         0.0047715880
      4   7   6   8         0.0047710993
      7   4   8   6         0.0047710993
      4   6  13   2        -0.0047672800
      6   4   2  13        -0.0047672800
      2   3  14  16        -0.0047669627
      3   2  16  14        -0.0047669627
      4   4   8   8        -0.0047635656
      7   7   0  25        -0.0047587678
      7   7  25   0        -0.0047587678
      4   7  19  26        -0.0047571118
      7   4  26  19        -0.0047571118
      4   5  17  16         0.0047483816
      5   4  16  17         0.0047483816
      3   3   1   3        -0.0047472647
      3   3   3   1        -0.0047472647
      3   4   9  18        -0.0047408349
      4   3  18   9        -0.0047408349
      5   6  12  22        -0.0047399168
      6   5  22  12        -0.0047399168
      4   6  10   7        -0.0047331249
      6   4   7  10        -0.0047331249
      2   5   0   4         0.0047268580
      5   2   4   0         0.0047268580
      3   5   9  22        -0.0047246377
      5   3  22   9        -0.0047246377
      3   6  11   0        -0.0047228396
      6   3   0  11        -0.0047228396
      2   5  14   5         0.0047148807
      5   2   5  14         0.0047148807
      3   6   0  14         0.0047105613
      6   3  14   0         0.0047105613
      6   7   7   8         0.0046953799
      7   6   8   7         0.0046953799
      5   6   9   2        -0.0046895937
      6   5   2   9        -0.0046895937
      2   6  19   0         0.0046832091
      6   2   0  19         0.0046832091
      3   4  12   6         0.0046828350
      4   3   6  12         0.0046828350
      3   7   9  13        -0.0046709093
      7   3  13   9        -0.0046709093
      6   6   1  13        -0.0046681508
      6   6  13   1        -0.0046681508
      2   6  10  19         0.0046680570
      6   2  19  10         0.0046680570
      2   5  14  14         0.0046605581
      5   2  14  14         0.0046605581
      4   5  24  12        -0.0046599375
      5   4  12  24        -0.0046599375
      4   7  18   1        -0.0046483301
      7   4   1  18        -0.0046483301
      1   1  42  42        -0.0046433196
      1   1  43  43        -0.0046403454
      0   0  42  42        -0.0046399373
      0   1  42  43        -0.0046397537
      1   0  43  42        -0.0046397537
      0   1  43  42        -0.0046396900
      1   0  42  43        -0.0046396900
      0   0  43  43        -0.0046370417
      4   6  20   4        -0.0046366649
      6   4   4  20        -0.0046366649
      3   6   2  25         0.0046288948
      6   3  25   2         0.0046288948
      4   6   5   1        -0.0046228328
      6   4   1   5        -0.0046228328
      3   6   2  22        -0.0046145294
      6   3  22   2        -0.0046145294
      3   3  25  25        -0.0046069838
      2   7   0  27         0.0045994078
      7   2  27   0         0.0045994078
      3   3   6   6        -0.0045989498
      2   5  22   0        -0.0045973622
      5   2   0  22        -0.0045973622
      2   5  12  35        -0.0045962385
      5   2  35  12        -0.0045962385
      2   2  22  22        -0.0045931681
      2   3  16  14        -0.0045862488
      3   2  14  16        -0.0045862488
      4   4  22  22        -0.0045855489
      7   7  10  15        -0.0045819844
      7   7  15  10        -0.0045819844
      4   6  21  23         0.0045809366
      6   4  23  21         0.0045809366
      3   6   9  23        -0.0045807627
      6   3  23   9        -0.0045807627
      5   7   8  11        -0.0045804264
      7   5  11   8        -0.0045804264
      4   6   1   5        -0.0045798767
      6   4   5   1        -0.0045798767
      4   4   5   5        -0.0045774899
      3   4  16  15        -0.0045723969
      4   3  15  16        -0.0045723969
      4   5  18   4         0.0045701749
      5   4   4  18         0.0045701749
      3   6  12   8         0.0045662825
      6   3   8  12         0.0045662825
      3   4  14   9         0.0045590539
[...]
      7   1  39  43         0.0000013160
      0   2  35  19        -0.0000013157
      2   0  19  35        -0.0000013157
      1   7  38  34         0.0000013100
      7   1  34  38         0.0000013100
      3   5  42  43         0.0000013004
      5   3  43  42         0.0000013004
      0   4  43  17         0.0000012994
      4   0  17  43         0.0000012994
      0   3  26  36         0.0000012955
      3   0  36  26         0.0000012955
      0   3  18  35        -0.0000012900
      3   0  35  18        -0.0000012900
      0   5  19  16         0.0000012873
      5   0  16  19         0.0000012873
      0   1  26  31         0.0000012850
      1   0  31  26         0.0000012850
      1   5  18  16        -0.0000012741
      5   1  16  18        -0.0000012741
      0   4  25  26         0.0000012705
      4   0  26  25         0.0000012705
      3   5  42   3        -0.0000012600
      5   3   3  42        -0.0000012600
      1   1  19  19        -0.0000012442
      3   5  43  18         0.0000012355
      5   3  18  43         0.0000012355
      6   7  42  21         0.0000012316
      7   6  21  42         0.0000012316
      0   0  19  19        -0.0000012295
      0   7   7  34         0.0000012123
      7   0  34   7         0.0000012123
      1   5  30  23        -0.0000012072
      5   1  23  30        -0.0000012072
      2   3  42  19        -0.0000011990
      3   2  19  42        -0.0000011990
      0   3   2  19        -0.0000011966
      3   0  19   2        -0.0000011966
      0   0  18  18        -0.0000011789
      0   1  25  39        -0.0000011694
      1   0  39  25        -0.0000011694
      1   2  14   3         0.0000011558
      2   1   3  14         0.0000011558
      1   6  34  22         0.0000011548
      6   1  22  34         0.0000011548
      1   4  25  36        -0.0000011533
      4   1  36  25        -0.0000011533
      0   4  10   2         0.0000011523
      4   0   2  10         0.0000011523
      1   2  18  41        -0.0000011515
      2   1  41  18        -0.0000011515
      3   5  24  32         0.0000011472
      5   3  32  24         0.0000011472
      4   7  41  42        -0.0000011444
      7   4  42  41        -0.0000011444
      1   4  24  14         0.0000011433
      4   1  14  24         0.0000011433
      0   2  35  35         0.0000011250
      2   0  35  35         0.0000011250
      1   6  30  28         0.0000011218
      6   1  28  30         0.0000011218
      1   7  42  25        -0.0000011211
      7   1  25  42        -0.0000011211
      0   6  26  29        -0.0000011108
      6   0  29  26        -0.0000011108
      3   3  26  42         0.0000011018
      3   3  42  26         0.0000011018
      0   6   9   2        -0.0000010966
      6   0   2   9        -0.0000010966
      1   7  35   7         0.0000010813
      7   1   7  35         0.0000010813
      0   6  42   7        -0.0000010633
      6   0   7  42        -0.0000010633
      1   6  15  14        -0.0000010552
      6   1  14  15        -0.0000010552
      6   7  27  43         0.0000010549
      7   6  43  27         0.0000010549
      4   5  25  42        -0.0000010501
      5   4  42  25        -0.0000010501
      3   5  31  42         0.0000010422
      5   3  42  31         0.0000010422
      2   4  12  29        -0.0000010232
      4   2  29  12        -0.0000010232
      0   0  18  37        -0.0000010184
      0   0  37  18        -0.0000010184
      1   4  29   5         0.0000010168
      4   1   5  29         0.0000010168
      1   7  35   8        -0.0000010094
      7   1   8  35        -0.0000010094
      0   3  14  23        -0.0000010076
      3   0  23  14        -0.0000010076
      0   6  29  11         0.0000009922
      6   0  11  29         0.0000009922
      2   3  34  13         0.0000009917
      3   2  13  34         0.0000009917
      1   5  19   5        -0.0000009899
      5   1   5  19        -0.0000009899
      1   4  42   9        -0.0000009740
      4   1   9  42        -0.0000009740
      0   6  43  10         0.0000009718
      6   0  10  43         0.0000009718
      0   4  43   9        -0.0000009710
      4   0   9  43        -0.0000009710
      0   0   5  30        -0.0000009546
      0   0  30   5        -0.0000009546
      1   5  17  25         0.0000009543
      5   1  25  17         0.0000009543
      1   4  25  43        -0.0000009475
      4   1  43  25        -0.0000009475
      0   6  31   4         0.0000009421
      6   0   4  31         0.0000009421
      1   1  18  18        -0.0000009401
      1   5  43  30         0.0000009396
      5   1  30  43         0.0000009396
      3   6  43  39         0.0000009389
      6   3  39  43         0.0000009389
      1   5  19  42         0.0000009330
      5   1  42  19         0.0000009330
      0   3  25  29        -0.0000009313
      3   0  29  25        -0.0000009313
      1   7  24  43         0.0000009167
      7   1  43  24         0.0000009167
      3   5  18  43         0.0000009054
      5   3  43  18         0.0000009054
      1   4   2   8        -0.0000009052
      4   1   8   2        -0.0000009052
      0   0  16  19        -0.0000009008
      0   0  19  16        -0.0000009008
      0   4  15  30        -0.0000008961
      4   0  30  15        -0.0000008961
      0   6  43  15         0.0000008957
      6   0  15  43         0.0000008957
      0   7  28  35         0.0000008945
      7   0  35  28         0.0000008945
      1   5  25   8         0.0000008926
      5   1   8  25         0.0000008926
      0   7  38  23        -0.0000008873
      7   0  23  38        -0.0000008873
      1   4  43  25         0.0000008824
      4   1  25  43         0.0000008824
      1   7  11  22        -0.0000008821
      7   1  22  11        -0.0000008821
      3   7  43   7        -0.0000008785
      7   3   7  43        -0.0000008785
      0   2   4  25        -0.0000008715
      2   0  25   4        -0.0000008715
      2   7  43   6        -0.0000008709
      7   2   6  43        -0.0000008709
      0   7  29  18         0.0000008655
      7   0  18  29         0.0000008655
      5   7  43   0         0.0000008618
      7   5   0  43         0.0000008618
      0   4  43   7         0.0000008581
      4   0   7  43         0.0000008581
      2   6  42  29         0.0000008349
      6   2  29  42         0.0000008349
      0   6  43  22        -0.0000008313
      6   0  22  43        -0.0000008313
      0   6  43  28        -0.0000008274
      6   0  28  43        -0.0000008274
      0   4  43  29         0.0000008245
      4   0  29  43         0.0000008245
      3   7  42  38         0.0000008229
      7   3  38  42         0.0000008229
      0   7   1   6         0.0000008201
      7   0   6   1         0.0000008201
      0   3  35  18        -0.0000008200
      3   0  18  35        -0.0000008200
      0   4  42  28        -0.0000008114
      4   0  28  42        -0.0000008114
      5   7  42  24        -0.0000008096
      7   5  24  42        -0.0000008096
      0   7  20  21         0.0000008084
      7   0  21  20         0.0000008084
      0   4  42   4         0.0000007981
      4   0   4  42         0.0000007981
      0   4  42   6        -0.0000007977
      4   0   6  42        -0.0000007977
      1   7  43   7         0.0000007962
      7   1   7  43         0.0000007962
      2   6  43   4         0.0000007946
      6   2   4  43         0.0000007946
      1   6  30   6         0.0000007942
      6   1   6  30         0.0000007942
      1   5  18  43         0.0000007880
      5   1  43  18         0.0000007880
      1   7  43  24         0.0000007705
      7   1  24  43         0.0000007705
      1   1  16  19        -0.0000007677
      1   1  19  16        -0.0000007677
      2   7  24  42         0.0000007654
      7   2  42  24         0.0000007654
      0   7  24  42         0.0000007616
      7   0  42  24         0.0000007616
      0   7  43  10         0.0000007593
      7   0  10  43         0.0000007593
      0   6  30   8         0.0000007593
      6   0   8  30         0.0000007593
      1   5  11  19        -0.0000007493
      5   1  19  11        -0.0000007493
      0   4  27  20         0.0000007324
      4   0  20  27         0.0000007324
      4   6  40  27         0.0000007248
      6   4  27  40         0.0000007248
      0   5  18  42         0.0000007169
      5   0  42  18         0.0000007169
      0   5  30  18        -0.0000007153
      5   0  18  30        -0.0000007153
      0   7  21   9        -0.0000007104
      7   0   9  21        -0.0000007104
      5   6  42   7        -0.0000006990
      6   5   7  42        -0.0000006990
      1   5  30  43         0.0000006950
      5   1  43  30         0.0000006950
      0   1  16  18         0.0000006939
      1   0  18  16         0.0000006939
      1   3  21  18        -0.0000006936
      3   1  18  21        -0.0000006936
      2   4  42  10         0.0000006908
      4   2  10  42         0.0000006908
      1   7  42  28        -0.0000006819
      7   1  28  42        -0.0000006819
      0   6  42   9        -0.0000006815
      6   0   9  42        -0.0000006815
      0   1  18  16         0.0000006733
      1   0  16  18         0.0000006733
      3   5  41  26         0.0000006719
      5   3  26  41         0.0000006719
      1   5  43  37        -0.0000006705
      5   1  37  43        -0.0000006705
      0   4  10  40        -0.0000006571
      4   0  40  10        -0.0000006571
      1   6  25  34         0.0000006550
      6   1  34  25         0.0000006550
      1   5  30   1         0.0000006482
      5   1   1  30         0.0000006482
      2   3  30  43        -0.0000006441
      3   2  43  30        -0.0000006441
      0   7   8  34         0.0000006388
      7   0  34   8         0.0000006388
      1   5  30  36         0.0000006307
      5   1  36  30         0.0000006307
      0   4  28  34         0.0000006298
      4   0  34  28         0.0000006298
      1   4   1  10        -0.0000006272
      4   1  10   1        -0.0000006272
      0   7  17  37         0.0000006227
      7   0  37  17         0.0000006227
      1   4  43   6        -0.0000006119
      4   1   6  43        -0.0000006119
      6   7   2  42         0.0000005990
      7   6  42   2         0.0000005990
      4   6  35  18         0.0000005966
      6   4  18  35         0.0000005966
      2   2  31  43         0.0000005960
      2   2  43  31         0.0000005960
      2   5  43   1        -0.0000005960
      5   2   1  43        -0.0000005960
      1   4  29  11         0.0000005910
      4   1  11  29         0.0000005910
      1   5  42  19        -0.0000005701
      5   1  19  42        -0.0000005701
      6   7  42   2         0.0000005643
      7   6   2  42         0.0000005643
      0   5  43  16         0.0000005637
      5   0  16  43         0.0000005637
      0   6  43   6        -0.0000005623
      6   0   6  43        -0.0000005623
      0   7  24  21         0.0000005566
      7   0  21  24         0.0000005566
      0   7  24  34         0.0000005458
      7   0  34  24         0.0000005458
      1   3  12  19        -0.0000005437
      3   1  19  12        -0.0000005437
      1   5  18  12         0.0000005378
      5   1  12  18         0.0000005378
      0   4  35  17        -0.0000005331
      4   0  17  35        -0.0000005331
      2   5  43  41         0.0000005325
      5   2  41  43         0.0000005325
      0   4  42  10         0.0000005296
      4   0  10  42         0.0000005296
      0   7  40   8         0.0000005291
      7   0   8  40         0.0000005291
      0   6  39  14        -0.0000005255
      6   0  14  39        -0.0000005255
      1   3  14  30         0.0000005238
      3   1  30  14         0.0000005238
      1   3  31  36        -0.0000005167
      3   1  36  31        -0.0000005167
      0   4  31  20         0.0000005153
      4   0  20  31         0.0000005153
      3   4  38  19         0.0000005095
      4   3  19  38         0.0000005095
      1   4  37  20        -0.0000005084
      4   1  20  37        -0.0000005084
      0   2  30  37        -0.0000005041
      2   0  37  30        -0.0000005041
      4   4  30  42         0.0000005034
      4   4  42  30         0.0000005034
      1   6  35  33         0.0000004998
      6   1  33  35         0.0000004998
      1   3  11  30        -0.0000004906
      3   1  30  11        -0.0000004906
      7   7  36  43        -0.0000004765
      7   7  43  36        -0.0000004765
      1   4  42  20        -0.0000004580
      4   1  20  42        -0.0000004580
      1   2  41  18        -0.0000004570
      2   1  18  41        -0.0000004570
      0   7  25  31         0.0000004559
      7   0  31  25         0.0000004559
      1   6  25  14         0.0000004488
      6   1  14  25         0.0000004488
      0   7  36  10         0.0000004458
      7   0  10  36         0.0000004458
      0   4  43   8        -0.0000004429
      4   0   8  43        -0.0000004429
      3   5  42  19        -0.0000004304
      5   3  19  42        -0.0000004304
      3   3  31  43         0.0000004267
      3   3  43  31         0.0000004267
      1   5  13  30        -0.0000004205
      5   1  30  13        -0.0000004205
      1   2   9  28        -0.0000004187
      2   1  28   9        -0.0000004187
      0   5  19  43         0.0000004150
      5   0  43  19         0.0000004150
      1   5  43  18         0.0000004106
      5   1  18  43         0.0000004106
      0   5  43  19        -0.0000004081
      5   0  19  43        -0.0000004081
      4   7  43  37         0.0000004032
      7   4  37  43         0.0000004032
      1   5  40  19         0.0000003993
      5   1  19  40         0.0000003993
      3   7  42  25        -0.0000003891
      7   3  25  42        -0.0000003891
      0   3  16  30         0.0000003885
      3   0  30  16         0.0000003885
      1   6  18  38        -0.0000003849
      6   1  38  18        -0.0000003849
      0   7  42   8        -0.0000003805
      7   0   8  42        -0.0000003805
      0   5  18   5        -0.0000003780
      5   0   5  18        -0.0000003780
      0   2  11  34        -0.0000003641
      2   0  34  11        -0.0000003641
      0   4  42  22         0.0000003586
      4   0  22  42         0.0000003586
      4   5  42   0        -0.0000003513
      5   4   0  42        -0.0000003513
      3   5  19  40        -0.0000003458
      5   3  40  19        -0.0000003458
      0   5  42  18        -0.0000003251
      5   0  18  42        -0.0000003251
      0   5   2  18         0.0000003209
      5   0  18   2         0.0000003209
      0   5  30  42         0.0000003061
      5   0  42  30         0.0000003061
      0   3  15  24        -0.0000003042
      3   0  24  15        -0.0000003042
      4   7  34  43         0.0000002987
      7   4  43  34         0.0000002987
      1   3  30  11        -0.0000002826
      3   1  11  30        -0.0000002826
      1   4  19  15         0.0000002758
      4   1  15  19         0.0000002758
      0   6  42   8         0.0000002751
      6   0   8  42         0.0000002751
      0   6  42  29         0.0000002730
      6   0  29  42         0.0000002730
      1   5  19  37         0.0000002683
      5   1  37  19         0.0000002683
      0   1   5  19         0.0000002661
      1   0  19   5         0.0000002661
      4   5   6  42         0.0000002417
      5   4  42   6         0.0000002417
      2   3  19  42         0.0000002344
      3   2  42  19         0.0000002344
      2   3  43  18        -0.0000002277
      3   2  18  43        -0.0000002277
      7   7  34  42         0.0000002271
      7   7  42  34         0.0000002271
      0   1  16  30        -0.0000002218
      1   0  30  16        -0.0000002218
      6   7  42  11         0.0000002101
      7   6  11  42         0.0000002101
      0   6  36   4        -0.0000002039
      6   0   4  36        -0.0000002039
      1   4  43  10        -0.0000002022
      4   1  10  43        -0.0000002022
      5   7  43   4        -0.0000001945
      7   5   4  43        -0.0000001945
      0   6  11  17         0.0000001938
      6   0  17  11         0.0000001938
      2   7   6  16        -0.0000001918
      7   2  16   6        -0.0000001918
      1   6  30  22         0.0000001740
      6   1  22  30         0.0000001740
      1   7  43  33         0.0000001732
      7   1  33  43         0.0000001732
      1   5   2  16         0.0000001709
      5   1  16   2         0.0000001709
      4   7  42  27         0.0000001702
      7   4  27  42         0.0000001702
      0   7  43   6        -0.0000001695
      7   0   6  43        -0.0000001695
      1   6  30  25        -0.0000001687
      6   1  25  30        -0.0000001687
      0   7  21   8         0.0000001652
      7   0   8  21         0.0000001652
      3   5  19  42        -0.0000001650
      5   3  42  19        -0.0000001650
      4   6  36  18         0.0000001497
      6   4  18  36         0.0000001497
      2   5  42  37         0.0000001468
      5   2  37  42         0.0000001468
      1   3  36  36        -0.0000001434
      3   1  36  36        -0.0000001434
      0   4   8   3        -0.0000001402
      4   0   3   8        -0.0000001402
      4   7   5  41        -0.0000001318
      7   4  41   5        -0.0000001318
      1   3   3  35         0.0000001314
      3   1  35   3         0.0000001314
      0   4  43  20         0.0000001307
      4   0  20  43         0.0000001307
      0   2   3  19        -0.0000001269
      2   0  19   3        -0.0000001269
      0   1  30  16         0.0000001197
      1   0  16  30         0.0000001197
      0   4  11   4        -0.0000001194
      4   0   4  11        -0.0000001194
      5   6  42  24        -0.0000001192
      6   5  24  42        -0.0000001192
      1   6  42   4        -0.0000001190
      6   1   4  42        -0.0000001190
      0   1  19   5        -0.0000001174
      1   0   5  19        -0.0000001174
      0   7  43  15         0.0000000990
      7   0  15  43         0.0000000990
      4   6  12  42         0.0000000943
      6   4  42  12         0.0000000943
      0   3   1  26         0.0000000915
      3   0  26   1         0.0000000915
      1   6  33  35         0.0000000815
      6   1  35  33         0.0000000815
      6   7  42  37         0.0000000566
      7   6  37  42         0.0000000566
      0   6  30  17        -0.0000000559
      6   0  17  30        -0.0000000559
      5   5   5  26        -0.0000000462
      5   5  26   5        -0.0000000462
      1   5   3  18         0.0000000296
      5   1  18   3         0.0000000296
      0   3  22  17        -0.0000000294
      3   0  17  22        -0.0000000294
      1   7  18  28        -0.0000000171
      7   1  28  18        -0.0000000171

    SCF energy       (wfn)                    =  -77.963422167005660
    Reference energy (file100)                =  -77.963422167005604

    Opposite-spin MP2 correlation energy      =   -0.248727199125862
    Same-spin MP2 correlation energy          =   -0.061233312066461
    MP2 correlation energy                    =   -0.309960511192323
      * MP2 total energy                      =  -78.273382678197933

    Opposite-spin CCSD correlation energy     =   -0.290242705517767
    Same-spin CCSD correlation energy         =   -0.054792562958258
    CCSD correlation energy                   =   -0.345035268476025
      * CCSD total energy                     =  -78.308457435481628


*** tstop() called on Berts-MacBook-Pro.local at Wed Dec  6 22:52:25 2017
Module time:
	user time   =     148.42 seconds =       2.47 minutes
	system time =       3.14 seconds =       0.05 minutes
	total time  =        151 seconds =       2.52 minutes
Total time:
	user time   =     204.32 seconds =       3.41 minutes
	system time =       4.31 seconds =       0.07 minutes
	total time  =        209 seconds =       3.48 minutes

*** Psi4 exiting successfully. Buy a developer a beer!
