
    -----------------------------------------------------------------------
          Psi4: An Open-Source Ab Initio Electronic Structure Package
                               Psi4 1.1 release

                         Git: Rev {HEAD} add49b9 


    R. M. Parrish, L. A. Burns, D. G. A. Smith, A. C. Simmonett,
    A. E. DePrince III, E. G. Hohenstein, U. Bozkaya, A. Yu. Sokolov,
    R. Di Remigio, R. M. Richard, J. F. Gonthier, A. M. James,
    H. R. McAlexander, A. Kumar, M. Saitow, X. Wang, B. P. Pritchard,
    P. Verma, H. F. Schaefer III, K. Patkowski, R. A. King, E. F. Valeev,
    F. A. Evangelista, J. M. Turney, T. D. Crawford, and C. D. Sherrill,
    J. Chem. Theory Comput. in press (2017).
    (doi: 10.1021/acs.jctc.7b00174)

    -----------------------------------------------------------------------


    Psi4 started on: Wednesday, 06 December 2017 09:47PM

    Process ID:  11972
    PSIDATADIR: /anaconda3/share/psi4
    Memory:     500.0 MiB
    Threads:    1
    
  ==> Input File <==

--------------------------------------------------------------------------
"""This is a template for psi4 input format."""
import numpy
import sys

from openfermion.config import *
from openfermion.ops._interaction_tensor import (one_body_basis_change,
                                              two_body_basis_change)
from openfermion.hamiltonians import MolecularData
from numpy import array

sys.path.append('/Users/wadejong/Desktop/Quantum-Computing/OpenFermion/OpenFermion-Psi4/openfermionpsi4')
from _psi4_conversion_functions import *

# Set number of threads in PSI4
set_num_threads(8)

# Set memory that job can use in megabytes.
memory 8000 mb

# Initialize molecular data.
_description = 'ethylene_0.70686'
if _description == 'None':
    _description = None
molecule = MolecularData([['C', array([ 0.      ,  0.      ,  0.673055])], ['C', array([ 0.      ,  0.      , -0.673055])], ['H', array([ 0.      ,  0.934981,  1.246807])], ['H', array([ 0.      , -0.934981,  1.246807])], ['H', array([ 0.60722159, -0.71096513, -1.246807  ])], ['H', array([-0.60722159,  0.71096513, -1.246807  ])]],
                         'DZP',
                         1,
                         0,
                         _description,
                          filename='/Users/wadejong/Desktop/QCQCSiddiqi/8_Qubit_Simulation/data/H4-C2_DZP_singlet_ethylene_0.70686')

# Set molecular geometry and symmetry.
molecule mol {
C 0.0 0.0 0.673055
C 0.0 0.0 -0.673055
H 0.0 0.934981 1.246807
H 0.0 -0.934981 1.246807
H 0.6072215856758034 -0.7109651301226826 -1.246807
H -0.6072215856758034 0.7109651301226826 -1.246807
symmetry c1
}
mol.set_multiplicity(1)
mol.set_molecular_charge(0)

# Set reference and guess.
if molecule.multiplicity == 1:
    set reference rhf
    set guess sad
    set sad_frac_occ true
else:
    set reference rohf
    set guess sad
    set sad_frac_occ true

# Set global parameters of calculation.
set globals {
    basis DZP
    freeze_core false
    fail_on_maxiter true
    df_scf_guess false
    guess sad
    sad_frac_occ true
    opdm false
    tpdm false
    soscf true
    scf_type pk
    diis true
    maxiter 1e6
    num_amps_print 1e6
    r_convergence 1e-7
    d_convergence 1e-7
    e_convergence 1e-7
    ints_tolerance EQUALITY_TOLERANCE
    damping_percentage 0
}

# Run self-consistent field (SCF) calculation.
if True:
    try:

        hf_energy, hf_wavefunction = energy('scf', return_wfn=True)
        scf_wfn = hf_wavefunction
        if True:
            print('Hartree-Fock energy for {} ({} electrons) is {}.'.format(
                molecule.name, molecule.n_electrons, hf_energy))
    except:
        if True:
            print('WARNING: SCF calculation failed.')
        else:
            raise
    else:
        # Get orbitals and Fock matrix.
        molecule.hf_energy = hf_energy
        molecule.nuclear_repulsion = mol.nuclear_repulsion_energy()
        molecule.canonical_orbitals = numpy.asarray(hf_wavefunction.Ca())
        molecule.n_orbitals = molecule.canonical_orbitals.shape[0]
        molecule.n_qubits = 2 * molecule.n_orbitals
        molecule.orbital_energies = numpy.asarray(hf_wavefunction.epsilon_a())
        molecule.fock_matrix = numpy.asarray(hf_wavefunction.Fa())

        # Get integrals using MintsHelper.
        mints = MintsHelper(hf_wavefunction.basisset())
        molecule.one_body_integrals = one_body_basis_change(
            numpy.asarray(mints.ao_kinetic()), molecule.canonical_orbitals)
        molecule.one_body_integrals += one_body_basis_change(
            numpy.asarray(mints.ao_potential()), molecule.canonical_orbitals)
        two_body_integrals = numpy.asarray(mints.ao_eri())
        two_body_integrals.reshape((molecule.n_orbitals, molecule.n_orbitals,
                                    molecule.n_orbitals, molecule.n_orbitals))
        two_body_integrals = numpy.einsum('psqr', two_body_integrals)
        two_body_integrals = two_body_basis_change(
            two_body_integrals, molecule.canonical_orbitals)
        molecule.two_body_integrals = two_body_integrals
        molecule.save()


# Perform MP2 energy calculation if there are at least two electrons.
if True:
    try:
        assert molecule.n_electrons > 1
        mp2_energy = energy('mp2',ref_wfn=scf_wfn)
        if True:
            print('MP2 energy for {} ({} electrons) is {}.'.format(
                molecule.name, molecule.n_electrons, mp2_energy))
    except:
        if True:
            print('WARNING: MP2 calculation failed.')
        else:
            raise
    else:
        molecule.mp2_energy = mp2_energy
        molecule.save()


# Perform configuration interaction singles and doubles (CISD) calculation.
if True:
    set qc_module detci
    try:
        cisd_energy, cisd_wavefunction = energy('cisd', ref_wfn=scf_wfn, return_wfn=True)
        if True:
            print('CISD energy for {} ({} electrons) is {}.'.format(
                molecule.name, molecule.n_electrons, cisd_energy))
    except:
        if True:
            print('WARNING: CISD calculation failed.')
        else:
            raise
    else:
        # For the functions below, "a" and "b" refer to "up and "down" spins.
        molecule.cisd_energy = cisd_energy

        # Get 1-RDM from CISD calculation.
        """cisd_one_rdm_a = numpy.array(cisd_wavefunction.get_opdm(
            0, 0, 'A', True)).reshape(molecule.n_orbitals, molecule.n_orbitals)
        cisd_one_rdm_b = numpy.array(cisd_wavefunction.get_opdm(
            0, 0, 'B', True)).reshape(molecule.n_orbitals, molecule.n_orbitals)

        # Get 2-RDM from CISD calculation.
        cisd_two_rdm_aa = numpy.array(cisd_wavefunction.get_tpdm(
            'AA', False)).reshape(molecule.n_orbitals, molecule.n_orbitals,
                                  molecule.n_orbitals, molecule.n_orbitals)
        cisd_two_rdm_ab = numpy.array(cisd_wavefunction.get_tpdm(
            'AB', False)).reshape(molecule.n_orbitals, molecule.n_orbitals,
                                  molecule.n_orbitals, molecule.n_orbitals)
        cisd_two_rdm_bb = numpy.array(cisd_wavefunction.get_tpdm(
            'BB', False)).reshape(molecule.n_orbitals, molecule.n_orbitals,
                                  molecule.n_orbitals, molecule.n_orbitals)

        # Get overall RDMs.
        cisd_one_rdm, cisd_two_rdm = unpack_spatial_rdm(
            cisd_one_rdm_a, cisd_one_rdm_b, cisd_two_rdm_aa,
            cisd_two_rdm_ab, cisd_two_rdm_bb)

        # Store 1-RDM in molecule file, 2-RDM separately in other file.
        molecule.cisd_one_rdm = cisd_one_rdm
        molecule.cisd_two_rdm = cisd_two_rdm
        molecule.save()"""


# Perform exact diagonalization.
if False:
    set qc_module detci
    try:
        fci_energy, fci_wavefunction = energy('fci', ref_wfn=scf_wfn, return_wfn=True)
        if True:
            print('FCI energy for {} ({} electrons) is {}.'.format(
                molecule.name, molecule.n_electrons, fci_energy))
    except:
        if True:
            print('WARNING: FCI calculation failed.')
        else:
            raise
    else:
        # For the functions below, "a" and "b" refer to "up and "down" spins.
        molecule.fci_energy = fci_energy

        # Get 1-RDM from FCI calculation.
        """fci_one_rdm_a = numpy.array(fci_wavefunction.get_opdm(
            0, 0, 'A', True)).reshape(molecule.n_orbitals, molecule.n_orbitals)
        fci_one_rdm_b = numpy.array(fci_wavefunction.get_opdm(
            0, 0, 'B', True)).reshape(molecule.n_orbitals, molecule.n_orbitals)

        # Get 2-RDM from FCI calculation.
        fci_two_rdm_aa = numpy.array(fci_wavefunction.get_tpdm(
            'AA', False)).reshape(molecule.n_orbitals, molecule.n_orbitals,
                                  molecule.n_orbitals, molecule.n_orbitals)
        fci_two_rdm_ab = numpy.array(fci_wavefunction.get_tpdm(
            'AB', False)).reshape(molecule.n_orbitals, molecule.n_orbitals,
                                  molecule.n_orbitals, molecule.n_orbitals)
        fci_two_rdm_bb = numpy.array(fci_wavefunction.get_tpdm(
            'BB', False)).reshape(molecule.n_orbitals, molecule.n_orbitals,
                                  molecule.n_orbitals, molecule.n_orbitals)

        # Get overall RDMs.
        fci_one_rdm, fci_two_rdm = unpack_spatial_rdm(
            fci_one_rdm_a, fci_one_rdm_b,
            fci_two_rdm_aa, fci_two_rdm_ab, fci_two_rdm_bb)

        # Store 1-RDM in molecule file, 2-RDM separately in other file.
        molecule.fci_one_rdm = fci_one_rdm
        molecule.fci_two_rdm = fci_two_rdm
        molecule.save()"""


# Perform coupled cluster singles and doubles (CCSD) calculation.
if True:
    set qc_module ccenergy
    try:
        ccsd_energy = energy('ccsd',ref_wfn=scf_wfn)
        if True:
            print('CCSD energy for {} ({} electrons) is {}.'.format(
                molecule.name, molecule.n_electrons, ccsd_energy))
    except:
        if True:
            print('WARNING: CCSD calculation failed.')
        else:
            raise
    else:
        molecule.ccsd_energy = ccsd_energy

        # Merge CC amplitudes into molecule by parsing
        psi_filename = outfile_name()
        ccsd_amplitudes = parse_psi4_ccsd_amplitudes(
            2 * molecule.n_orbitals,
            molecule.get_n_alpha_electrons(),
            molecule.get_n_beta_electrons(),
            psi_filename)
        molecule.ccsd_amplitudes = ccsd_amplitudes
        molecule.save()
--------------------------------------------------------------------------
  Python driver attempted to set threads to 8.
  Psi4 was compiled without OpenMP, setting threads to 1.

  Memory set to   7.451 GiB by Python driver.

*** tstart() called on Berts-MacBook-Pro.local
*** at Wed Dec  6 21:47:31 2017

   => Loading Basis Set <=

    Name: DZP
    Role: ORBITAL
    Keyword: BASIS
    atoms 1-2 entry C          line    73 file /anaconda3/share/psi4/basis/dzp.gbs 
    atoms 3-6 entry H          line    16 file /anaconda3/share/psi4/basis/dzp.gbs 


         ---------------------------------------------------------
                                   SCF
            by Justin Turney, Rob Parrish, and Andy Simmonett
                              RHF Reference
                        1 Threads,   7629 MiB Core
         ---------------------------------------------------------

  ==> Geometry <==

    Molecular point group: c1
    Full point group: D2

    Geometry (in Angstrom), charge = 0, multiplicity = 1:

       Center              X                  Y                   Z               Mass       
    ------------   -----------------  -----------------  -----------------  -----------------
           C          0.000000000000     0.000000000000     0.673055000000    12.000000000000
           C          0.000000000000     0.000000000000    -0.673055000000    12.000000000000
           H          0.323612872143     0.877191073452     1.246807000000     1.007825032070
           H         -0.323612872143    -0.877191073452     1.246807000000     1.007825032070
           H          0.323612872143    -0.877191073452    -1.246807000000     1.007825032070
           H         -0.323612872143     0.877191073452    -1.246807000000     1.007825032070

  Running in c1 symmetry.

  Rotational constants: A =      4.78350  B =      0.95995  C =      0.83285 [cm^-1]
  Rotational constants: A = 143405.72603  B =  28778.45463  C =  24968.35432 [MHz]
  Nuclear repulsion =   33.000878790037696

  Charge       = 0
  Multiplicity = 1
  Electrons    = 16
  Nalpha       = 8
  Nbeta        = 8

  ==> Algorithm <==

  SCF Algorithm Type is PK.
  DIIS enabled.
  MOM disabled.
  Fractional occupation disabled.
  Guess Type is SAD.
  Energy threshold   = 1.00e-07
  Density threshold  = 1.00e-07
  Integral threshold = 0.00e+00

  ==> Primary Basis <==

  Basis Set: DZP
    Blend: DZP
    Number of shells: 26
    Number of basis function: 52
    Number of Cartesian functions: 52
    Spherical Harmonics?: false
    Max angular momentum: 2

  ==> Pre-Iterations <==

   -------------------------------------------------------
    Irrep   Nso     Nmo     Nalpha   Nbeta   Ndocc  Nsocc
   -------------------------------------------------------
     A         52      52       0       0       0       0
   -------------------------------------------------------
    Total      52      52       8       8       8       0
   -------------------------------------------------------

  ==> Integral Setup <==

  Using in-core PK algorithm.
   Calculation information:
      Number of atoms:                   6
      Number of AO shells:              26
      Number of primitives:             50
      Number of atomic orbitals:        52
      Number of basis functions:        52

      Integral cutoff                 1.00e-12
      Number of threads:                 1

  Performing in-core PK
  Using 1900262 doubles for integral storage.
  We computed 61765 shell quartets total.
  Whereas there are 61776 unique shell quartets.
  ==> DiskJK: Disk-Based J/K Matrices <==

    J tasked:                  Yes
    K tasked:                  Yes
    wK tasked:                  No
    Memory (MB):              5722
    Schwarz Cutoff:          1E-12

    OpenMP threads:              1
  Minimum eigenvalue in the overlap matrix is 7.7627537100E-03.
  Using Symmetric Orthogonalization.

  SCF Guess: Superposition of Atomic Densities via on-the-fly atomic UHF.

  ==> Iterations <==

                        Total Energy        Delta E     RMS |[F,P]|

   @RHF iter   0:   -69.16297001350411   -6.91630e+01   1.01496e-01 
   @RHF iter   1:   -74.29010046841336   -5.12713e+00   4.00287e-02 
   @RHF iter   2:   -77.16334538537545   -2.87324e+00   2.41328e-02 DIIS/DAMP
   @RHF iter   3:   -78.00146914251452   -8.38124e-01   2.39040e-03 DIIS/DAMP
   @RHF iter   4:   -78.01271706831028   -1.12479e-02   4.03584e-04 SOSCF, nmicro = 4/DAMP
   @RHF iter   5:   -78.01326089710128   -5.43829e-04   2.08442e-06 SOSCF, nmicro = 4/DAMP
   @RHF iter   6:   -78.01326090746282   -1.03615e-08   2.89806e-09 SOSCF, conv/DAMP

  ==> Post-Iterations <==

    Orbital Energies (a.u.)
    -----------------------

    Doubly Occupied:                                                      

       1A    -11.246110     2A    -11.244571     3A     -1.028074  
       4A     -0.788731     5A     -0.627849     6A     -0.583241  
       7A     -0.529749     8A     -0.338246  

    Virtual:                                                              

       9A      0.119888    10A      0.257458    11A      0.302606  
      12A      0.361321    13A      0.378405    14A      0.412679  
      15A      0.447278    16A      0.470141    17A      0.480708  
      18A      0.592263    19A      0.603498    20A      0.674659  
      21A      0.821674    22A      1.016753    23A      1.208871  
      24A      1.222420    25A      1.309280    26A      1.466642  
      27A      1.582389    28A      1.605392    29A      1.663469  
      30A      1.955492    31A      2.039229    32A      2.072403  
      33A      2.108784    34A      2.135594    35A      2.164338  
      36A      2.451015    37A      2.466815    38A      2.480718  
      39A      2.709012    40A      2.710241    41A      2.822454  
      42A      2.921714    43A      2.934783    44A      3.196437  
      45A      3.418763    46A      3.521172    47A      3.526496  
      48A      3.840079    49A      4.230598    50A      4.521387  
      51A     27.631382    52A     27.658459  

    Final Occupation by Irrep:
              A 
    DOCC [     8 ]

  Energy converged.

  @RHF Final Energy:   -78.01326090746282

   => Energetics <=

    Nuclear Repulsion Energy =             33.0008787900376959
    One-Electron Energy =                -169.2551373951572486
    Two-Electron Energy =                  58.2409976976567378
    DFT Exchange-Correlation Energy =       0.0000000000000000
    Empirical Dispersion Energy =           0.0000000000000000
    PCM Polarization Energy =               0.0000000000000000
    EFP Energy =                            0.0000000000000000
    Total Energy =                        -78.0132609074628220



Properties will be evaluated at   0.000000,   0.000000,   0.000000 Bohr

Properties computed using the SCF density matrix

  Nuclear Dipole Moment: (a.u.)
     X:     0.0000      Y:     0.0000      Z:     0.0000

  Electronic Dipole Moment: (a.u.)
     X:    -0.0000      Y:     0.0000      Z:     0.0000

  Dipole Moment: (a.u.)
     X:    -0.0000      Y:     0.0000      Z:     0.0000     Total:     0.0000

  Dipole Moment: (Debye)
     X:    -0.0000      Y:     0.0000      Z:     0.0000     Total:     0.0000


*** tstop() called on Berts-MacBook-Pro.local at Wed Dec  6 21:47:32 2017
Module time:
	user time   =       0.40 seconds =       0.01 minutes
	system time =       0.13 seconds =       0.00 minutes
	total time  =          1 seconds =       0.02 minutes
Total time:
	user time   =       0.40 seconds =       0.01 minutes
	system time =       0.13 seconds =       0.00 minutes
	total time  =          1 seconds =       0.02 minutes

*** tstart() called on Berts-MacBook-Pro.local
*** at Wed Dec  6 21:47:36 2017


  //>>>>>>>>>>>>>>>>>>>>>>>>>>>>>>>>>>>//
  //               DFMP2               //
  //<<<<<<<<<<<<<<<<<<<<<<<<<<<<<<<<<<<//

   => Loading Basis Set <=

    Name: (DZP AUX)
    Role: RIFIT
    Keyword: DF_BASIS_MP2
    atoms 1-2 entry C          line   269 file /anaconda3/share/psi4/basis/def2-qzvpp-ri.gbs 
    atoms 3-6 entry H          line    23 file /anaconda3/share/psi4/basis/def2-qzvpp-ri.gbs 

	 --------------------------------------------------------
	                          DF-MP2                         
	      2nd-Order Density-Fitted Moller-Plesset Theory     
	              RMP2 Wavefunction,   1 Threads             
	                                                         
	        Rob Parrish, Justin Turney, Andy Simmonett,      
	           Ed Hohenstein, and C. David Sherrill          
	 --------------------------------------------------------

   => Auxiliary Basis Set <=

  Basis Set: (DZP AUX)
    Blend: DEF2-QZVPP-RI
    Number of shells: 130
    Number of basis function: 506
    Number of Cartesian functions: 666
    Spherical Harmonics?: true
    Max angular momentum: 5

	 --------------------------------------------------------
	                 NBF =    52, NAUX =   506
	 --------------------------------------------------------
	   CLASS    FOCC     OCC    AOCC    AVIR     VIR    FVIR
	   PAIRS       0       8       8      44      44       0
	 --------------------------------------------------------

	-----------------------------------------------------------
	 ==================> DF-MP2 Energies <==================== 
	-----------------------------------------------------------
	 Reference Energy          =     -78.0132609074628220 [Eh]
	 Singles Energy            =      -0.0000000000000000 [Eh]
	 Same-Spin Energy          =      -0.0607046355027801 [Eh]
	 Opposite-Spin Energy      =      -0.2456744095125770 [Eh]
	 Correlation Energy        =      -0.3063790450153571 [Eh]
	 Total Energy              =     -78.3196399524781839 [Eh]
	-----------------------------------------------------------
	 ================> DF-SCS-MP2 Energies <================== 
	-----------------------------------------------------------
	 SCS Same-Spin Scale       =       0.3333333333333333 [-]
	 SCS Opposite-Spin Scale   =       1.2000000000000000 [-]
	 SCS Same-Spin Energy      =      -0.0202348785009267 [Eh]
	 SCS Opposite-Spin Energy  =      -0.2948092914150924 [Eh]
	 SCS Correlation Energy    =      -0.3150441699160191 [Eh]
	 SCS Total Energy          =     -78.3283050773788432 [Eh]
	-----------------------------------------------------------


*** tstop() called on Berts-MacBook-Pro.local at Wed Dec  6 21:47:36 2017
Module time:
	user time   =       0.29 seconds =       0.00 minutes
	system time =       0.05 seconds =       0.00 minutes
	total time  =          0 seconds =       0.00 minutes
Total time:
	user time   =       4.56 seconds =       0.08 minutes
	system time =       0.32 seconds =       0.01 minutes
	total time  =          5 seconds =       0.08 minutes
 MINTS: Wrapper to libmints.
   by Justin Turney

   Calculation information:
      Number of threads:                 1
      Number of atoms:                   6
      Number of AO shells:              26
      Number of SO shells:              26
      Number of primitives:             50
      Number of atomic orbitals:        52
      Number of basis functions:        52

      Number of irreps:                  1
      Integral cutoff                 0.00e+00
      Number of functions per irrep: [  52 ]

 OEINTS: Overlap, kinetic, potential, dipole, and quadrupole integrals
         stored in file 35.

      Computing two-electron integrals...done
      Computed 840927 non-zero two-electron integrals.
        Stored in file 33.


         ---------------------------------------------------------
                          Configuration Interaction
                            (a 'D E T C I' module)

                 C. David Sherrill, Daniel G. A. Smith, and
                              Matt L. Leininger
         ---------------------------------------------------------


   ==> Parameters <==

    EX LEVEL       =        2      H0 BLOCKSIZE  =     1000
    VAL EX LEVEL   =        0      H0 GUESS SIZE =     1000
    H0COUPLINGSIZE =        0      H0 COUPLING   =       NO
    MAXITER        =       24      NUM PRINT     =       20
    NUM ROOTS      =        1      ICORE         =        1
    PRINT LVL      =        1      FCI           =       NO
    R CONV         = 1.00e-07      MIXED         =      YES
    E CONV         = 1.00e-07      MIXED4        =      YES
    R4S            =       NO      REPL OTF      =       NO
    DIAG METHOD    =      SEM      FOLLOW ROOT   =        0
    PRECONDITIONER = DAVIDSON      UPDATE        = DAVIDSON
    S              =   0.0000      Ms0           =      YES
    GUESS VECTOR   =  H0BLOCK      OPENTYPE      =     NONE
    COLLAPSE SIZE  =        1      HD AVG        = EVANGELISTI
    MAX NUM VECS   =       25      REF SYM       =     AUTO
    IOPEN        =       NO

    EX ALLOW       =  1  1 
    STATE AVERAGE  =  0(1.00) 

   ==> CI Orbital and Space information <==

    RAS1 LVL      =        7      A RAS3 MAX    =        2
    RAS1 MIN      =       14      B RAS3 MAX    =        2
    A RAS1 LVL    =        7      RAS4 LVL      =       52
    A RAS1 MIN    =        6      A RAS4 MAX    =        0
    A RAS1 MAX    =        8      B RAS4 MAX    =        0
    B RAS1 LVL    =        7      RAS4 MAX      =        0
    B RAS1 MIN    =        6      A RAS34 MAX   =        2
    B RAS1 MAX    =        8      B RAS34 MAX   =        2
    RAS3 LVL      =        8      RAS34 MAX     =        2
    RAS3 MAX      =        2
   ------------------------------------
               Space    Total     A
   ------------------------------------
                 Nso       52    52
                 Nmo       52    52
               Ndocc        8     8
               Nsocc        0     0
   ------------------------------------
              CI Spaces
   ------------------------------------
        Dropped DOCC        0     0
                RAS1        8     8
                RAS2        0     0
                RAS3       44    44
                RAS4        0     0
      Active (total)       52    52
        Dropped UOCC        0     0
   ------------------------------------

   ==> Setting up CI strings <==

    There are 26841 alpha and 26841 beta strings
    The CI space requires 177585 (1.78E+05) determinants and 6 blocks

   ==> Transforming CI integrals <==

	Presorting SO-basis two-electron integrals.
	Sorting File: SO Ints (nn|nn) nbuckets = 1
	Transforming the one-electron integrals and constructing Fock matrices
	Starting first half-transformation.
	Sorting half-transformed integrals.
	First half integral transformation complete.
	Starting second half-transformation.
	Two-electron integral transformation complete.

   ==> Starting CI iterations <==

    H0 Block Eigenvalue = -78.05065751

    Simultaneous Expansion Method (Block Davidson Method)
    Using 1 initial trial vectors

     Iter   Root       Total Energy       Delta E      C RMS

   @CI  0:     0    -78.050657509962   -1.1105E+02   1.5306E+00  
   @CI  1:     0    -78.311048143772   -2.6039E-01   1.5461E-01  
   @CI  2:     0    -78.322099407353   -1.1051E-02   4.9008E-02  
   @CI  3:     0    -78.323031969835   -9.3256E-04   1.2622E-02  
   @CI  4:     0    -78.323093991289   -6.2021E-05   3.7041E-03  
   @CI  5:     0    -78.323098334806   -4.3435E-06   9.4210E-04  
   @CI  6:     0    -78.323098634984   -3.0018E-07   2.6520E-04  
   @CI  7:     0    -78.323098657550   -2.2566E-08   7.3417E-05  
   @CI  8:     0    -78.323098659183   -1.6327E-09   1.7882E-05  
   @CI  9:     0    -78.323098659280   -9.7458E-11   4.4237E-06  
   @CI 10:     0    -78.323098659285   -5.0733E-12   8.7273E-07  
    Warning: Norm of correction (root 0) is < 1.0E-13
   @CI 11:     0    -78.323098659286   -2.1316E-13   1.9742E-07  
    Warning: Norm of correction (root 0) is < 1.0E-13
   @CI 12:     0    -78.323098659286   -4.2633E-14   4.2426E-08 c

   ==> Energetics <==

    SCF energy =            0.000000000000000
    Total CI energy =     -78.323098659285620

   ==> CISD root 0 information <==

    CISD Root 0 energy =   -78.323098659285620

   The 20 most important determinants:

    *   1    0.949728  (    0,    0)  1AX 2AX 3AX 4AX 5AX 6AX 7AX 8AX 
    *   2   -0.094173  (    1,    1)  1AX 2AX 3AX 4AX 5AX 6AX 7AX 9AX 
    *   3   -0.040287  (    1,   81)  1AX 2AX 3AX 4AX 5AX 6AX 7AX 9AA 19AB 
    *   4   -0.040287  (   81,    1)  1AX 2AX 3AX 4AX 5AX 6AX 7AX 9AB 19AA 
    *   5   -0.027077  (   99,   99)  1AX 2AX 3AX 4AX 5AX 7AX 8AX 21AX 
    *   6    0.024982  (    1,    2)  1AX 2AX 3AX 4AX 5AX 6AX 7AA 8AB 9AX 
    *   7    0.024982  (    2,    1)  1AX 2AX 3AX 4AX 5AX 6AX 7AB 8AA 9AX 
    *   8   -0.024279  (   81,   81)  1AX 2AX 3AX 4AX 5AX 6AX 7AX 19AX 
    *   9   -0.023296  (    1,   99)  1AX 2AX 3AX 4AX 5AX 6AA 7AX 8AB 9AA 21AB 
    *  10   -0.023296  (   99,    1)  1AX 2AX 3AX 4AX 5AX 6AB 7AX 8AA 9AB 21AA 
    *  11   -0.019501  (   36,   36)  1AX 2AX 3AX 4AX 6AX 7AX 8AX 13AX 
    *  12   -0.019421  (    0, 2202)  1AX 2AX 3AX 4AX 5AX 6AA 7AX 8AA 9AB 21AB 
    *  13   -0.019421  ( 2202,    0)  1AX 2AX 3AX 4AX 5AX 6AB 7AX 8AB 9AA 21AA 
    *  14   -0.018743  (    5,    5)  1AX 2AX 3AX 5AX 6AX 7AX 8AX 9AX 
    *  15   -0.018127  (   81,   99)  1AX 2AX 3AX 4AX 5AX 6AA 7AX 8AB 19AA 21AB 
    *  16   -0.018127  (   99,   81)  1AX 2AX 3AX 4AX 5AX 6AB 7AX 8AA 19AB 21AA 
    *  17   -0.018011  (   43,   43)  1AX 2AX 3AX 4AX 5AX 7AX 8AX 14AX 
    *  18   -0.017365  (    2,    2)  1AX 2AX 3AX 4AX 5AX 6AX 8AX 9AX 
    *  19   -0.016402  (   34,   34)  1AX 2AX 3AX 4AX 5AX 6AX 8AX 13AX 
    *  20   -0.015126  (   58,   58)  1AX 2AX 3AX 4AX 5AX 6AX 8AX 16AX 

		 "A good bug is a dead bug" 

			 - Starship Troopers

		 "I didn't write FORTRAN.  That's the problem."

			 - Edward Valeev
 MINTS: Wrapper to libmints.
   by Justin Turney

   Calculation information:
      Number of threads:                 1
      Number of atoms:                   6
      Number of AO shells:              26
      Number of SO shells:              26
      Number of primitives:             50
      Number of atomic orbitals:        52
      Number of basis functions:        52

      Number of irreps:                  1
      Integral cutoff                 0.00e+00
      Number of functions per irrep: [  52 ]

 OEINTS: Overlap, kinetic, potential, dipole, and quadrupole integrals
         stored in file 35.

      Computing two-electron integrals...done
      Computed 840927 non-zero two-electron integrals.
        Stored in file 33.


*** tstart() called on Berts-MacBook-Pro.local
*** at Wed Dec  6 21:48:28 2017


	Wfn Parameters:
	--------------------
	Wavefunction         = CCSD
	Number of irreps     = 1
	Number of MOs        = 52
	Number of active MOs = 52
	AO-Basis             = NONE
	Semicanonical        = false
	Reference            = RHF
	Print Level          = 1

	IRREP	# MOs	# FZDC	# DOCC	# SOCC	# VIRT	# FZVR
	-----	-----	------	------	------	------	------
	 A	   52	    0	    8	    0	    44	    0
	Transforming integrals...
	IWL integrals will be deleted.
	(OO|OO)...
	Presorting SO-basis two-electron integrals.
	Sorting File: SO Ints (nn|nn) nbuckets = 1
	Transforming the one-electron integrals and constructing Fock matrices
	Starting first half-transformation.
	Sorting half-transformed integrals.
	First half integral transformation complete.
	Starting second half-transformation.
	Two-electron integral transformation complete.
	(OO|OV)...
	Starting second half-transformation.
	Two-electron integral transformation complete.
	(OO|VV)...
	Starting second half-transformation.
	Two-electron integral transformation complete.
	(OV|OO)...
	Starting first half-transformation.
	Sorting half-transformed integrals.
	First half integral transformation complete.
	Starting second half-transformation.
	Two-electron integral transformation complete.
	(OV|OV)...
	Starting second half-transformation.
	Two-electron integral transformation complete.
	(OV|VV)...
	Starting second half-transformation.
	Two-electron integral transformation complete.
	(VV|OO)...
	Starting first half-transformation.
	Sorting half-transformed integrals.
	First half integral transformation complete.
	Starting second half-transformation.
	Two-electron integral transformation complete.
	(VV|OV)...
	Starting second half-transformation.
	Two-electron integral transformation complete.
	(VV|VV)...
	Starting second half-transformation.
	Two-electron integral transformation complete.
	Frozen core energy     =      0.00000000000000

	Size of irrep 0 of <ab|cd> integrals:      3.748 (MW) /     29.985 (MB)
	Total:                                     3.748 (MW) /     29.985 (MB)

	Size of irrep 0 of <ia|bc> integrals:      0.681 (MW) /      5.452 (MB)
	Total:                                     0.681 (MW) /      5.452 (MB)

	Size of irrep 0 of tijab amplitudes:       0.124 (MW) /      0.991 (MB)
	Total:                                     0.124 (MW) /      0.991 (MB)

	Nuclear Rep. energy          =     33.00087879003770
	SCF energy                   =    -78.01326090746282
	One-electron energy          =   -169.25513748122791
	Two-electron energy          =     58.24099778372749
	Reference energy             =    -78.01326090746272

*** tstop() called on Berts-MacBook-Pro.local at Wed Dec  6 21:48:29 2017
Module time:
	user time   =       0.27 seconds =       0.00 minutes
	system time =       0.28 seconds =       0.00 minutes
	total time  =          1 seconds =       0.02 minutes
Total time:
	user time   =      56.55 seconds =       0.94 minutes
	system time =       1.19 seconds =       0.02 minutes
	total time  =         58 seconds =       0.97 minutes

*** tstart() called on Berts-MacBook-Pro.local
*** at Wed Dec  6 21:48:29 2017

            **************************
            *                        *
            *        CCENERGY        *
            *                        *
            **************************

    Nuclear Rep. energy (wfn)     =   33.000878790037696
    SCF energy          (wfn)     =  -78.013260907462822
    Reference energy    (file100) =  -78.013260907462723

    Input parameters:
    -----------------
    Wave function   =     CCSD
    Reference wfn   =     RHF
    Brueckner       =     No
    Memory (Mbytes) =     8000.0
    Maxiter         =   1000000
    R_Convergence   =     1.0e-07
    E_Convergence   =     1.0e-07
    Restart         =     Yes
    DIIS            =     Yes
    AO Basis        =     NONE
    ABCD            =     NEW
    Cache Level     =     2
    Cache Type      =     LOW
    Print Level     =     1
    Num. of threads =     1
    # Amps to Print =     1000000
    Print MP2 Amps? =     No
    Analyze T2 Amps =     No
    Print Pair Ener =     No
    Local CC        =     No
    SCS-MP2         =     False
    SCSN-MP2        =     False
    SCS-CCSD        =     False

MP2 correlation energy -0.3063869967130448
                Solving CC Amplitude Equations
                ------------------------------
  Iter             Energy              RMS        T1Diag      D1Diag    New D1Diag    D2Diag
  ----     ---------------------    ---------   ----------  ----------  ----------   --------
     0        -0.306386996713045    0.000e+00    0.000000    0.000000    0.000000    0.161792
     1        -0.326540710065247    5.592e-02    0.006912    0.024601    0.024601    0.180259
     2        -0.337028399240450    2.492e-02    0.008654    0.031635    0.031635    0.201991
     3        -0.338452127659456    9.505e-03    0.009916    0.036737    0.036737    0.212416
     4        -0.338549459533619    3.475e-03    0.010097    0.037673    0.037673    0.217194
     5        -0.338574364035370    7.817e-04    0.010090    0.037684    0.037684    0.217883
     6        -0.338571171124622    2.207e-04    0.010079    0.037648    0.037648    0.217908
     7        -0.338570660246524    7.544e-05    0.010075    0.037634    0.037634    0.217919
     8        -0.338570473021810    2.151e-05    0.010075    0.037633    0.037633    0.217917
     9        -0.338570307976908    5.550e-06    0.010075    0.037632    0.037632    0.217916
    10        -0.338570479756613    1.634e-06    0.010075    0.037633    0.037633    0.217917
    11        -0.338570484216666    4.676e-07    0.010075    0.037633    0.037633    0.217917
    12        -0.338570498052151    1.132e-07    0.010075    0.037633    0.037633    0.217917
    13        -0.338570496864766    3.192e-08    0.010075    0.037633    0.037633    0.217917

    Iterations converged.


    Largest TIA Amplitudes:
              7   7         0.0238565195
              7   9         0.0186573062
              7   8         0.0177653250
              7  20         0.0092409653
              6   9         0.0058675647
              4   4         0.0054965819
              6   7         0.0052617074
              5  21         0.0043777066
              3  13         0.0043730587
              7  17        -0.0043674928
              7  29         0.0042357500
              5   5         0.0038459307
              4  22        -0.0032448909
              3  24         0.0030995802
              6  33         0.0030751520
              2   2        -0.0026410820
              2  40         0.0026333808
              4  15         0.0026249190
              2  25        -0.0026168005
              2  21         0.0023067999
              5  34        -0.0022572968
              3  41         0.0018580634
              3  28        -0.0017936092
              5  19         0.0017131456
              4  38         0.0016675945
              6  17        -0.0016330765
              6  20         0.0016300925
              6  23        -0.0016156990
              7  33        -0.0015715362
              3  35         0.0015152627
              2   5         0.0015132443
              4  32         0.0014566337
              4  10        -0.0014328907
              4   0        -0.0013496392
              2  11         0.0013362602
              7  23         0.0013182785
              3  37         0.0012584081
              6   8         0.0012577390
              5   2        -0.0012163412
              3  31        -0.0012027781
              5  14        -0.0011954403
              5  36        -0.0010979119
              2  36         0.0010110000
              4  27         0.0010099254
              3   1        -0.0009618946
              2  30        -0.0009416782
              5  11        -0.0009230751
              3  12         0.0008604997
              2  14         0.0008056593
              6  39         0.0007851186
              7  39         0.0007628067
              1  13        -0.0005612767
              4  26         0.0005485742
              5  40         0.0005018572
              3   3         0.0004955700
              3  16         0.0004822284
              0  40        -0.0004574150
              1  41        -0.0003768291
              5  25         0.0003454409
              2  34        -0.0003290617
              1   1        -0.0003288255
              0  11        -0.0003247824
              4   6         0.0003059753
              0  14        -0.0002954207
              1  12        -0.0002592303
              0   2        -0.0002506632
              1  35        -0.0002253703
              3  18        -0.0001838466
              1   3        -0.0001711159
              6  29         0.0001666407
              0  36        -0.0001665091
              1  37        -0.0001526135
              0   5        -0.0001416072
              2  42         0.0001218405
              1  24        -0.0001166125
              1  28        -0.0001116144
              0  21        -0.0001109998
              1  43         0.0000971992
              0  42         0.0000966257
              3  43         0.0000908935
              1  16        -0.0000647271
              0  34        -0.0000434040
              5  30         0.0000378810
              1  31        -0.0000235519
              0  25         0.0000184465
              5  42         0.0000179559
              1  18        -0.0000105467
              0  19         0.0000024830
              0  30         0.0000021206
              2  19         0.0000008517

    Largest TIjAb Amplitudes:
      7   7   0   0        -0.1422973217
      7   7   0  10        -0.0552399487
      7   7  10   0        -0.0552399487
      6   7   0   0        -0.0328121208
      7   6   0   0        -0.0328121208
      5   5  12  12        -0.0312321004
      7   7  10  10        -0.0289520138
      5   7  12   0        -0.0269023438
      7   5   0  12        -0.0269023438
      4   4   4   4        -0.0236479372
      3   3   0   0        -0.0218983080
      6   6   0   0        -0.0217628027
      5   5   5   5        -0.0216640205
      5   7  12  10        -0.0210268049
      7   5  10  12        -0.0210268049
      6   6   4   4        -0.0207453614
      3   7   2   0        -0.0180985522
      7   3   0   2        -0.0180985522
      6   6   7   7        -0.0180959367
      6   6   3   3        -0.0177256374
      6   7   0  10        -0.0176823841
      7   6  10   0        -0.0176823841
      4   6   4   9         0.0172782544
      6   4   9   4         0.0172782544
      2   7  12   0        -0.0170173946
      7   2   0  12        -0.0170173946
      7   7   8   8        -0.0168282333
      6   7   0   4        -0.0167616320
      7   6   4   0        -0.0167616320
      7   7  11  11        -0.0166199331
      2   7   0  12        -0.0163697487
      7   2  12   0        -0.0163697487
      3   7   0   2        -0.0161229592
      7   3   2   0        -0.0161229592
      2   7   1   0        -0.0160925884
      7   2   0   1        -0.0160925884
      6   7  10   0        -0.0159071546
      7   6   0  10        -0.0159071546
      4   6   2   3        -0.0158508215
      6   4   3   2        -0.0158508215
      4   5   4   5         0.0158247865
      5   4   5   4         0.0158247865
      5   5   4   4        -0.0157283085
      4   4   2   2        -0.0157125128
      4   4   6   6        -0.0151334443
      5   6   5   7         0.0149173406
      6   5   7   5         0.0149173406
      2   2  12  12        -0.0146569926
      4   6   6   7        -0.0144026913
      6   4   7   6        -0.0144026913
      2   7   0   3        -0.0142820761
      7   2   3   0        -0.0142820761
      4   6   4   7        -0.0141883102
      6   4   7   4        -0.0141883102
      5   7   5   8         0.0141709564
      7   5   8   5         0.0141709564
      4   7   9   0         0.0139044979
      7   4   0   9         0.0139044979
      5   6   4   3         0.0138337450
      6   5   3   4         0.0138337450
      3   5   1   5         0.0137414000
      5   3   5   1         0.0137414000
      2   7   0   1        -0.0132227326
      7   2   1   0        -0.0132227326
      4   4   9   9        -0.0129828561
      6   7   7   8        -0.0129733648
      7   6   8   7        -0.0129733648
      3   7   0  11         0.0128620728
      7   3  11   0         0.0128620728
      3   5   2  12        -0.0128414407
      5   3  12   2        -0.0128414407
      4   6   9   4         0.0127902647
      6   4   4   9         0.0127902647
      2   7   1  10        -0.0127137869
      7   2  10   1        -0.0127137869
      6   6   2   2        -0.0126809471
      3   3  12  12        -0.0126699716
      4   7   4   8        -0.0126235936
      7   4   8   4        -0.0126235936
      6   6   9   9        -0.0125625854
      2   7  12  10        -0.0125137307
      7   2  10  12        -0.0125137307
      2   7  13  10        -0.0124325709
      7   2  10  13        -0.0124325709
      6   7   6   0        -0.0124106629
      7   6   0   6        -0.0124106629
      3   6   0  19         0.0122896894
      6   3  19   0         0.0122896894
      5   5   0   0        -0.0122512877
      2   5  13  12        -0.0121978078
      5   2  12  13        -0.0121978078
      3   6   1   7        -0.0120489325
      6   3   7   1        -0.0120489325
      3   7   0   5        -0.0120377639
      7   3   5   0        -0.0120377639
      3   3   2   2        -0.0120357580
      4   4   3   3        -0.0120260988
      5   6  12   6        -0.0120249445
      6   5   6  12        -0.0120249445
      3   4   1   4        -0.0119699333
      4   3   4   1        -0.0119699333
      2   7   3   0        -0.0119236608
      7   2   0   3        -0.0119236608
      4   7   6   8        -0.0119008850
      7   4   8   6        -0.0119008850
      5   6   5   9        -0.0117503985
      6   5   9   5        -0.0117503985
      2   7  13   0        -0.0116778943
      7   2   0  13        -0.0116778943
      4   6   3   2        -0.0116774535
      6   4   2   3        -0.0116774535
      5   6  12   0        -0.0116599293
      6   5   0  12        -0.0116599293
      4   5   6   5         0.0115420697
      5   4   5   6         0.0115420697
      6   7  10  10        -0.0115202842
      7   6  10  10        -0.0115202842
      3   3   1   1        -0.0115064805
      7   7   0   6         0.0114748431
      7   7   6   0         0.0114748431
      4   7   0   9         0.0114696621
      7   4   9   0         0.0114696621
      7   7   4   4        -0.0114657230
      7   7  12  12        -0.0113975767
      3   7   5   0        -0.0113896893
      7   3   0   5        -0.0113896893
      4   6   4  17        -0.0113182778
      6   4  17   4        -0.0113182778
      2   2   0   0        -0.0113070129
      7   7   9   9        -0.0112706797
      6   6   7   9         0.0112070600
      6   6   9   7         0.0112070600
      6   6  14  14        -0.0111976776
      5   5  20  20        -0.0110897818
      3   7   0  14        -0.0110512319
      7   3  14   0        -0.0110512319
      3   4   0  18         0.0109766689
      4   3  18   0         0.0109766689
      4   7   9  10         0.0109654329
      7   4  10   9         0.0109654329
      5   5   2   2        -0.0109574840
      3   7   2  10        -0.0109488875
      7   3  10   2        -0.0109488875
      3   7   1   8        -0.0109378623
      7   3   8   1        -0.0109378623
      4   5   2   4         0.0107730485
      5   4   4   2         0.0107730485
      3   3  14  14        -0.0105687986
      5   7   5   9         0.0105644831
      7   5   9   5         0.0105644831
      3   5   0  20         0.0105402564
      5   3  20   0         0.0105402564
      6   6  16  16        -0.0104793035
      4   4   4  15        -0.0104712943
      4   4  15   4        -0.0104712943
      5   5  15  15        -0.0103733169
      5   7   0   3         0.0103595445
      7   5   3   0         0.0103595445
      3   3   5   5        -0.0103377015
      3   7   5  10        -0.0102534212
      7   3  10   5        -0.0102534212
      4   6  14   3        -0.0102456370
      6   4   3  14        -0.0102456370
      3   6   1   9         0.0102025564
      6   3   9   1         0.0102025564
      6   7   6  10        -0.0101455732
      7   6  10   6        -0.0101455732
      4   7   7   0        -0.0101389217
      7   4   0   7        -0.0101389217
      3   5  13   5         0.0101372293
      5   3   5  13         0.0101372293
      3   3   3   3        -0.0100441364
      3   4  13   4        -0.0099957183
      4   3   4  13        -0.0099957183
      4   4  18  18        -0.0099729495
      4   4  15  15        -0.0099663135
      3   5   3   2         0.0099582056
      5   3   2   3         0.0099582056
      4   5   7  12        -0.0099301748
      5   4  12   7        -0.0099301748
      6   6  19  19        -0.0098957111
      2   5   1  12        -0.0098628654
      5   2  12   1        -0.0098628654
      3   7   0  25         0.0098162250
      7   3  25   0         0.0098162250
      4   7   6   9        -0.0098045865
      7   4   9   6        -0.0098045865
      3   5   2   3         0.0097441146
      5   3   3   2         0.0097441146
      4   4  14  14        -0.0096923863
      6   7   4   4         0.0096728784
      7   6   4   4         0.0096728784
      5   5   4  15        -0.0096646254
      5   5  15   4        -0.0096646254
      5   7   3   0         0.0096188276
      7   5   0   3         0.0096188276
      4   6  18  19        -0.0095176004
      6   4  19  18        -0.0095176004
      6   7   7   9        -0.0095102506
      7   6   9   7        -0.0095102506
      3   5  12   2        -0.0094995454
      5   3   2  12        -0.0094995454
      4   6   3  14        -0.0094939593
      6   4  14   3        -0.0094939593
      6   6   6   6        -0.0094776927
      3   6  13   7        -0.0094529330
      6   3   7  13        -0.0094529330
      4   6  14  16        -0.0094496360
      6   4  16  14        -0.0094496360
      4   4   0   0        -0.0094311565
      6   6  15  15        -0.0094063912
      3   5   5  12        -0.0093990252
      5   3  12   5        -0.0093990252
      4   6  15  17        -0.0093875354
      6   4  17  15        -0.0093875354
      4   7   7  10        -0.0093771488
      7   4  10   7        -0.0093771488
      4   4  19  19        -0.0093756565
      6   6  17  17        -0.0093490327
      2   2   4   4        -0.0093392399
      4   6  16  14        -0.0092774057
      6   4  14  16        -0.0092774057
      4   7   4   9        -0.0092311304
      7   4   9   4        -0.0092311304
      7   7   8   9        -0.0092112411
      7   7   9   8        -0.0092112411
      2   7   0  16        -0.0091681065
      7   2  16   0        -0.0091681065
      2   2  13  13        -0.0091463643
      3   7  14   0        -0.0090961514
      7   3   0  14        -0.0090961514
      2   5  11   5         0.0090856875
      5   2   5  11         0.0090856875
      4   6   7   6        -0.0090799300
      6   4   6   7        -0.0090799300
      3   3   2  14        -0.0090525067
      3   3  14   2        -0.0090525067
      2   5  12  12        -0.0090412402
      5   2  12  12        -0.0090412402
      4   6  17   4        -0.0090215339
      6   4   4  17        -0.0090215339
      2   4   0  19         0.0089911125
      4   2  19   0         0.0089911125
      3   5  11  12        -0.0089440512
      5   3  12  11        -0.0089440512
      3   4   1   6        -0.0089333892
      4   3   6   1        -0.0089333892
      4   5   9  12         0.0088560212
      5   4  12   9         0.0088560212
      5   6   4  16         0.0088444373
      6   5  16   4         0.0088444373
      3   7   1   9        -0.0088251212
      7   3   9   1        -0.0088251212
      2   7  10  12        -0.0088205388
      7   2  12  10        -0.0088205388
      6   7   9   8         0.0088199726
      7   6   8   9         0.0088199726
      5   6  15  16         0.0088164270
      6   5  16  15         0.0088164270
      4   4   7   9         0.0087973051
      4   4   9   7         0.0087973051
      3   3   0  10        -0.0087886360
      3   3  10   0        -0.0087886360
      6   6   3  16        -0.0087624801
      6   6  16   3        -0.0087624801
      6   6  18  18        -0.0087497642
      4   4   7   7        -0.0087409638
      4   4  16  16        -0.0087172723
      3   7  13   8        -0.0087087102
      7   3   8  13        -0.0087087102
      4   4   4   6        -0.0086891599
      4   4   6   4        -0.0086891599
      6   6   4  15        -0.0086778033
      6   6  15   4        -0.0086778033
      5   5   3   3        -0.0086424758
      5   6  12  10        -0.0086020565
      6   5  10  12        -0.0086020565
      4   5  14   4         0.0085374266
      5   4   4  14         0.0085374266
      7   7   6  10         0.0085275362
      7   7  10   6         0.0085275362
      7   7  18  18        -0.0084716651
      7   7   3   3        -0.0084575865
      2   2  12  13        -0.0084052581
      2   2  13  12        -0.0084052581
      2   2   0  10        -0.0084023683
      2   2  10   0        -0.0084023683
      2   6  11   7        -0.0083774994
      6   2   7  11        -0.0083774994
      2   4  11   6        -0.0083488211
      4   2   6  11        -0.0083488211
      3   4   5   9         0.0083301208
      4   3   9   5         0.0083301208
      6   7   7   7        -0.0083170881
      7   6   7   7        -0.0083170881
      4   7   4  20         0.0082661609
      7   4  20   4         0.0082661609
      3   6   4   2        -0.0082636129
      6   3   2   4        -0.0082636129
      7   7   1   1        -0.0082630043
      4   4   0   4         0.0082579058
      4   4   4   0         0.0082579058
      3   3   4   4        -0.0081954554
      6   6   2  14        -0.0081721666
      6   6  14   2        -0.0081721666
      2   4  13   9         0.0081637903
      4   2   9  13         0.0081637903
      4   4   2  14        -0.0080449963
      4   4  14   2        -0.0080449963
      4   5  18  20        -0.0080268386
      5   4  20  18        -0.0080268386
      2   7  10   1        -0.0080210727
      7   2   1  10        -0.0080210727
      6   7   9   9         0.0080066658
      7   6   9   9         0.0080066658
      7   7  20  20        -0.0079881334
      2   2  10  10        -0.0079788884
      3   6   5   4        -0.0079697891
      6   3   4   5        -0.0079697891
      4   6   6   9         0.0079570734
      6   4   9   6         0.0079570734
      3   3  13  13        -0.0079089488
      3   5   3  14         0.0079035886
      5   3  14   3         0.0079035886
      5   5   3  12         0.0079001405
      5   5  12   3         0.0079001405
      4   6   7   4        -0.0078624750
      6   4   4   7        -0.0078624750
      7   7   0   4        -0.0078506124
      7   7   4   0        -0.0078506124
      3   3   1  13        -0.0078337082
      3   3  13   1        -0.0078337082
      4   5   4  21         0.0078138365
      5   4  21   4         0.0078138365
      3   5  14   3         0.0078060243
      5   3   3  14         0.0078060243
      2   2  11  11        -0.0077934349
      3   6  13   9         0.0077636197
      6   3   9  13         0.0077636197
      5   5   1   1        -0.0077516833
      4   4  17  17        -0.0077354612
      5   7   4  18         0.0076796508
      7   5  18   4         0.0076796508
      4   6  17  15        -0.0076577533
      6   4  15  17        -0.0076577533
      2   6   0  18         0.0076217092
      6   2  18   0         0.0076217092
      3   5   5   1         0.0075993357
      5   3   1   5         0.0075993357
      5   6  20  19        -0.0075709431
      6   5  19  20        -0.0075709431
      3   6  15  14        -0.0075468319
      6   3  14  15        -0.0075468319
      5   5  14  14        -0.0075325744
      3   3   9   9        -0.0075262111
      3   3  16  16        -0.0075080675
      5   5  21  21        -0.0074918537
      3   4   0   3         0.0074610163
      4   3   3   0         0.0074610163
      4   6  19  18        -0.0074601720
      6   4  18  19        -0.0074601720
      5   6  15   3         0.0074438931
      6   5   3  15         0.0074438931
      2   4   1   9         0.0074064848
      4   2   9   1         0.0074064848
      3   4  13   6        -0.0074021277
      4   3   6  13        -0.0074021277
      4   5  14  15         0.0073805430
      5   4  15  14         0.0073805430
      4   6   9   6         0.0073580564
      6   4   6   9         0.0073580564
      2   7  11   8        -0.0072958431
      7   2   8  11        -0.0072958431
      3   7  10   2        -0.0072566586
      7   3   2  10        -0.0072566586
      3   6   4  14        -0.0072289929
      6   3  14   4        -0.0072289929
      2   5   2   5         0.0071913470
      5   2   5   2         0.0071913470
      6   6   1   1        -0.0071812376
      6   6   0  10        -0.0071795122
      6   6  10   0        -0.0071795122
      2   4   2   6        -0.0071689400
      4   2   6   2        -0.0071689400
      3   3   2   5        -0.0071328551
      3   3   5   2        -0.0071328551
      5   5   2  14        -0.0071240890
      5   5  14   2        -0.0071240890
      3   5   3   5         0.0071237734
      5   3   5   3         0.0071237734
      5   6   1   4         0.0071229064
      6   5   4   1         0.0071229064
      5   7  13   0        -0.0071113247
      7   5   0  13        -0.0071113247
      2   6   2   7        -0.0070601918
      6   2   7   2        -0.0070601918
      2   6  13   4        -0.0070511160
      6   2   4  13        -0.0070511160
      6   7   0  15        -0.0070384789
      7   6  15   0        -0.0070384789
      7   7   7   8        -0.0070168125
      7   7   8   7        -0.0070168125
      3   5  14  16         0.0070046710
      5   3  16  14         0.0070046710
      2   2   4  15        -0.0069889452
      2   2  15   4        -0.0069889452
      6   7  22   0        -0.0069758786
      7   6   0  22        -0.0069758786
      5   7  12   6         0.0069605300
      7   5   6  12         0.0069605300
      3   4   4   3        -0.0069576335
      4   3   3   4        -0.0069576335
      7   7   7   7        -0.0069251142
      5   7  15  18         0.0069144372
      7   5  18  15         0.0069144372
      2   2  15  15        -0.0069124602
      2   5  12  13        -0.0069060178
      5   2  13  12        -0.0069060178
      3   7   3   9        -0.0068586074
      7   3   9   3        -0.0068586074
      2   2  20  20        -0.0068351151
      2   4  12   9         0.0068338665
      4   2   9  12         0.0068338665
      5   5  11  11        -0.0068252473
      3   5  16  14         0.0068215324
      5   3  14  16         0.0068215324
      6   6  11  11        -0.0068213444
      3   5  14  12        -0.0068187639
      5   3  12  14        -0.0068187639
      7   7   2   2        -0.0068098758
      4   5  16  17         0.0067789678
      5   4  17  16         0.0067789678
      7   7   1  12        -0.0067733457
      7   7  12   1        -0.0067733457
      3   6  19   0         0.0067503695
      6   3   0  19         0.0067503695
      2   7   0  13        -0.0067285672
      7   2  13   0        -0.0067285672
      5   7   5   7         0.0067223484
      7   5   7   5         0.0067223484
      2   3   2   3        -0.0067073416
      3   2   3   2        -0.0067073416
      4   4   3  16        -0.0067019339
      4   4  16   3        -0.0067019339
      7   7  25  25        -0.0066979304
      3   5   0  17        -0.0066795809
      5   3  17   0        -0.0066795809
      5   7   0  16         0.0066757872
      7   5  16   0         0.0066757872
      5   5  17  17        -0.0066674450
      4   5   3   9        -0.0066673399
      5   4   9   3        -0.0066673399
      6   6  10  10        -0.0066466118
      3   6   2   6        -0.0066171110
      6   3   6   2        -0.0066171110
      3   5   0   9         0.0065941682
      5   3   9   0         0.0065941682
      3   3  10  10        -0.0065840696
      5   6  17  14         0.0065838185
      6   5  14  17         0.0065838185
      3   7  12  20         0.0065529547
      7   3  20  12         0.0065529547
      2   4  13   7        -0.0065479477
      4   2   7  13        -0.0065479477
      3   4   5   7        -0.0065477888
      4   3   7   5        -0.0065477888
      2   2   1  13        -0.0065201362
      2   2  13   1        -0.0065201362
      3   7  13   9        -0.0065016623
      7   3   9  13        -0.0065016623
      3   6   3   7        -0.0064944398
      6   3   7   3        -0.0064944398
      2   7  10  13        -0.0064716084
      7   2  13  10        -0.0064716084
      2   6   4   1        -0.0064462025
      6   2   1   4        -0.0064462025
      3   3   3  16        -0.0064148033
      3   3  16   3        -0.0064148033
      3   6  14   4        -0.0064102481
      6   3   4  14        -0.0064102481
      3   4  15  16        -0.0063826131
      4   3  16  15        -0.0063826131
      3   3  19  19        -0.0063825880
      3   3  20  20        -0.0063594625
      2   6   4  12        -0.0063452391
      6   2  12   4        -0.0063452391
      4   5   8  12         0.0063318364
      5   4  12   8         0.0063318364
      3   7  14  10        -0.0063227746
      7   3  10  14        -0.0063227746
      3   4   3   4        -0.0063203396
      4   3   4   3        -0.0063203396
      2   7  10   3        -0.0063128935
      7   2   3  10        -0.0063128935
      4   4   9  17         0.0062731107
      4   4  17   9         0.0062731107
      2   7   3  10        -0.0062718567
      7   2  10   3        -0.0062718567
      3   3  15  15        -0.0062553541
      3   3  18  18        -0.0062509568
      5   6   3   4         0.0062486374
      6   5   4   3         0.0062486374
      6   7   4  10        -0.0062412025
      7   6  10   4        -0.0062412025
      3   6   4   5        -0.0062306475
      6   3   5   4        -0.0062306475
      2   7   2   8        -0.0062260165
      7   2   8   2        -0.0062260165
      3   4   2   9         0.0062259254
      4   3   9   2         0.0062259254
      3   6   2  22        -0.0062203331
      6   3  22   2        -0.0062203331
      3   6   5   6        -0.0062145642
      6   3   6   5        -0.0062145642
      2   2   1  12        -0.0062053851
      2   2  12   1        -0.0062053851
      3   4   4  13        -0.0061768497
      4   3  13   4        -0.0061768497
      4   7  15  20         0.0061768155
      7   4  20  15         0.0061768155
      5   7  20  25        -0.0061731587
      7   5  25  20        -0.0061731587
      2   5  12  28        -0.0061729635
      5   2  28  12        -0.0061729635
      5   5   5  21        -0.0061709506
      5   5  21   5        -0.0061709506
      6   6   6  10        -0.0061457330
      6   6  10   6        -0.0061457330
      2   6  13   6        -0.0061449787
      6   2   6  13        -0.0061449787
      2   6   4  13        -0.0061387259
      6   2  13   4        -0.0061387259
      4   5  15  11        -0.0061341719
      5   4  11  15        -0.0061341719
      6   6  23  23        -0.0061272461
      6   6   9  17         0.0061013814
      6   6  17   9         0.0061013814
      3   4   3   6        -0.0060896913
      4   3   6   3        -0.0060896913
      3   3  17  17        -0.0060565221
      4   4  21  21        -0.0060330896
      3   4  18   0         0.0060205250
      4   3   0  18         0.0060205250
      7   7   5   5        -0.0060200785
      6   6  21  21        -0.0060087349
      3   3  11  11        -0.0059973697
      4   6   2  16        -0.0059970152
      6   4  16   2        -0.0059970152
      2   4   1   7        -0.0059838622
      4   2   7   1        -0.0059838622
      3   4  17  14        -0.0059753973
      4   3  14  17        -0.0059753973
      2   3   1   5        -0.0059558681
      3   2   5   1        -0.0059558681
      3   7  11  10        -0.0059458678
      7   3  10  11        -0.0059458678
      4   6   7  10        -0.0059435265
      6   4  10   7        -0.0059435265
      2   2   1   1        -0.0059399102
      3   5   0   8        -0.0059354662
      5   3   8   0        -0.0059354662
      3   6  21   4        -0.0059303183
      6   3   4  21        -0.0059303183
      6   6   4  10        -0.0059260788
      6   6  10   4        -0.0059260788
      4   6  16  11         0.0059095953
      6   4  11  16         0.0059095953
      3   7   9   3        -0.0058996051
      7   3   3   9        -0.0058996051
      7   7  13  13        -0.0058900280
      3   4   2   7        -0.0058621948
      4   3   7   2        -0.0058621948
      7   7   5  11         0.0058592851
      7   7  11   5         0.0058592851
      2   5   2   2         0.0058491113
      5   2   2   2         0.0058491113
      7   7  19  19        -0.0058478782
      3   6   7   1        -0.0058478732
      6   3   1   7        -0.0058478732
      3   6   3   9         0.0058433326
      6   3   9   3         0.0058433326
      3   5  12  21         0.0058157052
      5   3  21  12         0.0058157052
      5   7   0  12        -0.0058109069
      7   5  12   0        -0.0058109069
      3   5  10  20         0.0058018651
      5   3  20  10         0.0058018651
      2   5   0  26        -0.0058018427
      5   2  26   0        -0.0058018427
      2   2   7   7        -0.0057979177
      7   7   1   3        -0.0057954190
      7   7   3   1        -0.0057954190
      2   6   1   6        -0.0057912153
      6   2   6   1        -0.0057912153
      5   7  21  20        -0.0057759081
      7   5  20  21        -0.0057759081
      2   3   0   9        -0.0057700977
      3   2   9   0        -0.0057700977
      3   5  20   0         0.0057640815
      5   3   0  20         0.0057640815
      4   7   8  10         0.0057619142
      7   4  10   8         0.0057619142
      4   7   8   0         0.0057594619
      7   4   0   8         0.0057594619
      4   6  11  16         0.0057560239
      6   4  16  11         0.0057560239
      4   7   3  11        -0.0057560190
      7   4  11   3        -0.0057560190
      5   6  12  22        -0.0057531415
      6   5  22  12        -0.0057531415
      2   3   3   2        -0.0057421362
      3   2   2   3        -0.0057421362
      3   4   2  23        -0.0057320732
      4   3  23   2        -0.0057320732
      6   6   3  13        -0.0057169334
      6   6  13   3        -0.0057169334
      5   7  10  12        -0.0057157726
      7   5  12  10        -0.0057157726
      3   3   3  12         0.0057077570
      3   3  12   3         0.0057077570
      2   7  11   9        -0.0057039974
      7   2   9  11        -0.0057039974
      6   6  13  13        -0.0056777428
      2   6  13  10        -0.0056735664
      6   2  10  13        -0.0056735664
      2   6   1   4        -0.0056616589
      6   2   4   1        -0.0056616589
      4   5   3  17         0.0056564151
      5   4  17   3         0.0056564151
      4   4   1   1        -0.0056541450
      4   5   6   2         0.0056447901
      5   4   2   6         0.0056447901
      3   6  11   6        -0.0056290719
      6   3   6  11        -0.0056290719
      5   7   2   9         0.0056268469
      7   5   9   2         0.0056268469
      3   7  10  25         0.0056145079
      7   3  25  10         0.0056145079
      3   6   3  23        -0.0056060654
      6   3  23   3        -0.0056060654
      3   6  17  16        -0.0056035600
      6   3  16  17        -0.0056035600
      4   7   3   2         0.0056022502
      7   4   2   3         0.0056022502
      4   4  11  11        -0.0055832472
      4   7   9   4        -0.0055829597
      7   4   4   9        -0.0055829597
      5   5  22  22        -0.0055797341
      7   7   3  12        -0.0055622562
      7   7  12   3        -0.0055622562
      2   6   1  10        -0.0055512788
      6   2  10   1        -0.0055512788
      5   6   2   7         0.0055447369
      6   5   7   2         0.0055447369
      3   6   9   1         0.0055441937
      6   3   1   9         0.0055441937
      4   7  19  12         0.0055406776
      7   4  12  19         0.0055406776
      3   6  14  15        -0.0055362015
      6   3  15  14        -0.0055362015
      3   5   2  16         0.0055330478
      5   3  16   2         0.0055330478
      3   6  20  18         0.0055319193
      6   3  18  20         0.0055319193
      3   7  10   5        -0.0055314943
      7   3   5  10        -0.0055314943
      2   6  12   4        -0.0055199326
      6   2   4  12        -0.0055199326
      3   6   2   4        -0.0055053773
      6   3   4   2        -0.0055053773
      4   6  15   9         0.0054940046
      6   4   9  15         0.0054940046
      2   7   2   9        -0.0054585759
      7   2   9   2        -0.0054585759
      5   5  13  13        -0.0054556350
      2   4  19   0         0.0054529318
      4   2   0  19         0.0054529318
      2   3  13   5        -0.0054480383
      3   2   5  13        -0.0054480383
      2   3  14   3        -0.0054365369
      3   2   3  14        -0.0054365369
      3   6  12  23         0.0054324373
      6   3  23  12         0.0054324373
      3   3  21  21        -0.0054309484
      5   6   9   2        -0.0054106985
      6   5   2   9        -0.0054106985
      6   6  24  24        -0.0053935926
      3   7  10  14        -0.0053898687
      7   3  14  10        -0.0053898687
      4   7  18  25        -0.0053769224
      7   4  25  18        -0.0053769224
      4   4  12  12        -0.0053649762
      2   5  28  12        -0.0053626339
      5   2  12  28        -0.0053626339
      3   5  12  14        -0.0053625380
      5   3  14  12        -0.0053625380
      6   6  12  12        -0.0053594558
      2   5   5  11         0.0053529498
      5   2  11   5         0.0053529498
      5   6  16  15         0.0053501084
      6   5  15  16         0.0053501084
      2   7  11   7        -0.0053470157
      7   2   7  11        -0.0053470157
      2   4  12  17        -0.0053386041
      4   2  17  12        -0.0053386041
      3   3   5  14        -0.0053340562
      3   3  14   5        -0.0053340562
      2   2  18  18        -0.0053330314
      7   7   0  26        -0.0053320266
      7   7  26   0        -0.0053320266
      4   7   6   7        -0.0053306939
      7   4   7   6        -0.0053306939
      7   7   0  15        -0.0053287820
      7   7  15   0        -0.0053287820
      5   5  16  16        -0.0053266372
      3   4  12  15        -0.0053173281
      4   3  15  12        -0.0053173281
      5   5   3  16        -0.0053147381
      5   5  16   3        -0.0053147381
      4   4  13  13        -0.0053128591
      2   7  24   0        -0.0053059257
      7   2   0  24        -0.0053059257
      2   4   9   1         0.0053019111
      4   2   1   9         0.0053019111
      2   3   3  14        -0.0052889199
      3   2  14   3        -0.0052889199
      2   5   3   3         0.0052771931
      5   2   3   3         0.0052771931
      5   6   2  23         0.0052730000
      6   5  23   2         0.0052730000
      3   3   3  13        -0.0052685073
      3   3  13   3        -0.0052685073
      3   4   4   1        -0.0052664979
      4   3   1   4        -0.0052664979
      6   6  11  14         0.0052656579
      6   6  14  11         0.0052656579
      2   7   0  24        -0.0052597564
      7   2  24   0        -0.0052597564
      3   4   9   5         0.0052556220
      4   3   5   9         0.0052556220
      5   6   0  18        -0.0052526998
      6   5  18   0        -0.0052526998
      6   7  17  20         0.0052437404
      7   6  20  17         0.0052437404
      4   6   2  13        -0.0052434026
      6   4  13   2        -0.0052434026
      3   7   9   1        -0.0052421510
      7   3   1   9        -0.0052421510
      2   5   4  15        -0.0052272526
      5   2  15   4        -0.0052272526
      3   6   5  10        -0.0052234313
      6   3  10   5        -0.0052234313
      4   4  23  23        -0.0052183475
      3   4   3  22        -0.0052110700
      4   3  22   3        -0.0052110700
      2   2   9   9        -0.0052069907
      2   3  18  19        -0.0052066739
      3   2  19  18        -0.0052066739
      3   6  12  17        -0.0052052127
      6   3  17  12        -0.0052052127
      6   6   5   5        -0.0052048863
      2   2  19  19        -0.0051880460
      4   5  22   2         0.0051510335
      5   4   2  22         0.0051510335
      4   7  19  18         0.0051434812
      7   4  18  19         0.0051434812
      5   6  11  17        -0.0051404329
      6   5  17  11        -0.0051404329
      2   3   2  13        -0.0051347481
      3   2  13   2        -0.0051347481
      5   7   1   4        -0.0051336815
      7   5   4   1        -0.0051336815
      6   7  19  25        -0.0051260642
      7   6  25  19        -0.0051260642
      2   2   5   5        -0.0051215316
      6   7   3  18        -0.0051188501
      7   6  18   3        -0.0051188501
      2   3  19  18        -0.0051144542
      3   2  18  19        -0.0051144542
      4   7   0  17        -0.0051143939
      7   4  17   0        -0.0051143939
      3   5  16   2         0.0050991109
      5   3   2  16         0.0050991109
      5   6  16   4         0.0050786782
      6   5   4  16         0.0050786782
      7   7   6   6        -0.0050784271
      4   5  11  15        -0.0050676664
      5   4  15  11        -0.0050676664
      5   5   0   4         0.0050644542
      5   5   4   0         0.0050644542
      3   3   7   7        -0.0050572554
      2   3   2   1        -0.0050526039
      3   2   1   2        -0.0050526039
      7   7   8  20         0.0050478976
      7   7  20   8         0.0050478976
      2   3   4   9         0.0050420744
      3   2   9   4         0.0050420744
      3   3   1   3        -0.0050396131
      3   3   3   1        -0.0050396131
      5   7  16   0         0.0050370881
      7   5   0  16         0.0050370881
      4   4  22  22        -0.0050334594
      3   6  14  22        -0.0050180564
      6   3  22  14        -0.0050180564
      3   4  14  17        -0.0050163267
      4   3  17  14        -0.0050163267
      2   5  12  24        -0.0050122501
      5   2  24  12        -0.0050122501
      2   7   4  18         0.0049909131
      7   2  18   4         0.0049909131
      3   3  23  23        -0.0049871039
      6   6   0   6        -0.0049838162
      6   6   6   0        -0.0049838162
      6   7  10   4        -0.0049836601
      7   6   4  10        -0.0049836601
      5   5   9   9        -0.0049825440
      4   6  21  24         0.0049737828
      6   4  24  21         0.0049737828
      5   7  24   0        -0.0049731060
      7   5   0  24        -0.0049731060
      2   4   9  13         0.0049720456
      4   2  13   9         0.0049720456
      3   4   9   2         0.0049704788
      4   3   2   9         0.0049704788
      3   4  10  18         0.0049639275
      4   3  18  10         0.0049639275
      4   5   2  15         0.0049612996
      5   4  15   2         0.0049612996
      3   3  22  22        -0.0049587833
      4   6   0   9        -0.0049587539
      6   4   9   0        -0.0049587539
      6   7  19  11        -0.0049470713
      7   6  11  19        -0.0049470713
      2   6  12  10        -0.0049425039
      6   2  10  12        -0.0049425039
      4   5  15  21         0.0049424748
      5   4  21  15         0.0049424748
      4   7   9   6        -0.0049414617
      7   4   6   9        -0.0049414617
      2   4   4  21        -0.0049408041
      4   2  21   4        -0.0049408041
      2   6  18   0         0.0049406104
      6   2   0  18         0.0049406104
      3   5  12  11        -0.0049401803
      5   3  11  12        -0.0049401803
      2   3  14  16        -0.0049216485
      3   2  16  14        -0.0049216485
      4   6  16   2        -0.0049189145
      6   4   2  16        -0.0049189145
      2   3  13   2        -0.0049158705
      3   2   2  13        -0.0049158705
      4   6   9  10         0.0049098925
      6   4  10   9         0.0049098925
      3   5   5   3         0.0049085310
      5   3   3   5         0.0049085310
      2   2   2   2        -0.0049065433
      2   2  21  21        -0.0048760050
      3   6  15  11         0.0048539773
      6   3  11  15         0.0048539773
      4   5   9   3        -0.0048507303
      5   4   3   9        -0.0048507303
      6   6  22  22        -0.0048263091
      3   6  16  17        -0.0048250677
      6   3  17  16        -0.0048250677
      5   5  11  21         0.0048210010
      5   5  21  11         0.0048210010
      4   6   0  17         0.0048189051
      6   4  17   0         0.0048189051
      2   5   0  22        -0.0048104746
      5   2  22   0        -0.0048104746
      4   4   0  15         0.0048077180
      4   4  15   0         0.0048077180
      3   6  10  19         0.0047969800
      6   3  19  10         0.0047969800
      3   3   6   6        -0.0047966198
      5   5   1  13        -0.0047948743
      5   5  13   1        -0.0047948743
      4   5  14   0        -0.0047948628
      5   4   0  14        -0.0047948628
      3   4  12   4        -0.0047765457
      4   3   4  12        -0.0047765457
      4   6   5   1        -0.0047738231
      6   4   1   5        -0.0047738231
      2   4   2   4        -0.0047671170
      4   2   4   2        -0.0047671170
      3   4  14   9         0.0047655855
      4   3   9  14         0.0047655855
      2   5  14  14         0.0047637954
      5   2  14  14         0.0047637954
      3   3   5  11        -0.0047634739
      3   3  11   5        -0.0047634739
      2   3   0  20        -0.0047468153
      3   2  20   0        -0.0047468153
      3   6  11  15         0.0047422547
      6   3  15  11         0.0047422547
      3   4  16  15        -0.0047407936
      4   3  15  16        -0.0047407936
      3   3   0  26         0.0047367111
      3   3  26   0         0.0047367111
      5   5   2   5        -0.0047220222
      5   5   5   2        -0.0047220222
      4   4  24  24        -0.0047214758
      3   6   9  13         0.0047183533
      6   3  13   9         0.0047183533
      5   6  21  17         0.0047182719
      6   5  17  21         0.0047182719
      5   6  24   4        -0.0047151613
      6   5   4  24        -0.0047151613
      5   7   9   2         0.0047135728
      7   5   2   9         0.0047135728
      2   6  10  18         0.0047085935
      6   2  18  10         0.0047085935
      2   2  17  17        -0.0047051392
      2   5  12  35        -0.0047020427
      5   2  35  12        -0.0047020427
      4   6   1   5        -0.0046986230
      6   4   5   1        -0.0046986230
      4   6  13   2        -0.0046978775
      6   4   2  13        -0.0046978775
      4   6  24  21         0.0046800677
      6   4  21  24         0.0046800677
      5   6   3  22         0.0046718485
      6   5  22   3         0.0046718485
      2   3  16  14        -0.0046680513
      3   2  14  16        -0.0046680513
      3   6   7  13        -0.0046646040
      6   3  13   7        -0.0046646040
      3   6   9   3         0.0046643912
      6   3   3   9         0.0046643912
      4   5  23  12        -0.0046614498
      5   4  12  23        -0.0046614498
      6   6   1  13        -0.0046599333
      6   6  13   1        -0.0046599333
      1   1  42  42        -0.0046454970
      3   6   2  10        -0.0046448419
      6   3  10   2        -0.0046448419
      0   0  42  42        -0.0046420832
      0   1  42  43        -0.0046404269
      1   0  43  42        -0.0046404269
      0   1  43  42        -0.0046403614
      1   0  42  43        -0.0046403614
      1   1  43  43        -0.0046394866
      5   6  13   0        -0.0046362822
      6   5   0  13        -0.0046362822
      0   0  43  43        -0.0046361550
      2   3  11  13        -0.0046288004
      3   2  13  11        -0.0046288004
      2   5   0   0         0.0046210799
      5   2   0   0         0.0046210799
      5   6   4  12        -0.0046164984
      6   5  12   4        -0.0046164984
      4   5   9  24         0.0046112084
      5   4  24   9         0.0046112084
      6   6   0  15         0.0045999803
      6   6  15   0         0.0045999803
      2   7  16   0        -0.0045926595
      7   2   0  16        -0.0045926595
      2   7  12  32        -0.0045899982
      7   2  32  12        -0.0045899982
      3   4  15   3        -0.0045868896
      4   3   3  15        -0.0045868896
      2   5   3  12        -0.0045840186
      5   2  12   3        -0.0045840186
      7   7   1  13        -0.0045834455
      7   7  13   1        -0.0045834455
      7   7   7   9        -0.0045780705
      7   7   9   7        -0.0045780705
      2   5   4  27        -0.0045772304
      5   2  27   4        -0.0045772304
      5   7   3  10         0.0045766263
      7   5  10   3         0.0045766263
      5   7  12  15        -0.0045747376
      7   5  15  12        -0.0045747376
      4   5  17  16         0.0045742588
      5   4  16  17         0.0045742588
      4   5   4  14         0.0045609871
      5   4  14   4         0.0045609871
      6   7   3   3         0.0045555113
      7   6   3   3         0.0045555113
      3   6   4  21        -0.0045548015
      6   3  21   4        -0.0045548015
      3   6  17   3        -0.0045431111
      6   3   3  17        -0.0045431111
      2   6   1   0        -0.0045328226
      6   2   0   1        -0.0045328226
      2   5  14   5         0.0045304457
      5   2   5  14         0.0045304457
      3   4  11   7        -0.0045218971
      4   3   7  11        -0.0045218971
      6   7  16  18        -0.0045212096
      7   6  18  16        -0.0045212096
      2   3   7  10        -0.0045202808
      3   2  10   7        -0.0045202808
      4   7  18  11        -0.0045166372
      7   4  11  18        -0.0045166372
      4   5   2   0        -0.0045145863
      5   4   0   2        -0.0045145863
      3   6   9  24        -0.0045126038
      6   3  24   9        -0.0045126038
      3   4  21   9         0.0044947186
      4   3   9  21         0.0044947186
      2   6  15  12        -0.0044823349
      6   2  12  15        -0.0044823349
      6   6  26  26        -0.0044822545
      3   6   6  11        -0.0044746178
      6   3  11   6        -0.0044746178
[...]
      7   2   6  43        -0.0000012330
      1   2  36   3        -0.0000012247
      2   1   3  36        -0.0000012247
      1   6  30   6        -0.0000012155
      6   1   6  30        -0.0000012155
      0   3  19  41        -0.0000012103
      3   0  41  19        -0.0000012103
      0   3  13  19        -0.0000012062
      3   0  19  13        -0.0000012062
      2   6  42  29        -0.0000012035
      6   2  29  42        -0.0000012035
      0   4  32  19        -0.0000012028
      4   0  19  32        -0.0000012028
      0   2  19  40         0.0000011899
      2   0  40  19         0.0000011899
      1   7  26  11         0.0000011886
      7   1  11  26         0.0000011886
      0   4  11  26        -0.0000011884
      4   0  26  11        -0.0000011884
      0   0  19  19        -0.0000011872
      0   5  33   8        -0.0000011870
      5   0   8  33        -0.0000011870
      0   6  43  26         0.0000011840
      6   0  26  43         0.0000011840
      0   6  34  20        -0.0000011717
      6   0  20  34        -0.0000011717
      3   7  43   7        -0.0000011699
      7   3   7  43        -0.0000011699
      1   3   2  19        -0.0000011659
      3   1  19   2        -0.0000011659
      0   6  42   8        -0.0000011658
      6   0   8  42        -0.0000011658
      4   6  19  43        -0.0000011653
      6   4  43  19        -0.0000011653
      1   5  19  12        -0.0000011499
      5   1  12  19        -0.0000011499
      0   3   5  13         0.0000011476
      3   0  13   5         0.0000011476
      0   1  16  30        -0.0000011410
      1   0  30  16        -0.0000011410
      0   4  42   4         0.0000011340
      4   0   4  42         0.0000011340
      0   5  42  36        -0.0000011274
      5   0  36  42        -0.0000011274
      1   7  23  43        -0.0000011227
      7   1  43  23        -0.0000011227
      3   4  29  42         0.0000011178
      4   3  42  29         0.0000011178
      1   6  42   4        -0.0000011177
      6   1   4  42        -0.0000011177
      1   4  34  29         0.0000011174
      4   1  29  34         0.0000011174
      1   7  29  35         0.0000011054
      7   1  35  29         0.0000011054
      1   7  25  15        -0.0000011033
      7   1  15  25        -0.0000011033
      2   3  42  31         0.0000011022
      3   2  31  42         0.0000011022
      1   4  42   8        -0.0000011021
      4   1   8  42        -0.0000011021
      1   3   5  19        -0.0000010806
      3   1  19   5        -0.0000010806
      0   7  23  42        -0.0000010661
      7   0  42  23        -0.0000010661
      4   7  43  25         0.0000010656
      7   4  25  43         0.0000010656
      1   2  26  39         0.0000010636
      2   1  39  26         0.0000010636
      0   2  16  37         0.0000010584
      2   0  37  16         0.0000010584
      1   6  19  27        -0.0000010550
      6   1  27  19        -0.0000010550
      0   3   7  15         0.0000010475
      3   0  15   7         0.0000010475
      1   4  14   8         0.0000010451
      4   1   8  14         0.0000010451
      0   1  30  31         0.0000010319
      1   0  31  30         0.0000010319
      0   2  17  23         0.0000010154
      2   0  23  17         0.0000010154
      0   4  34   0        -0.0000010007
      4   0   0  34        -0.0000010007
      0   4  42   0        -0.0000010005
      4   0   0  42        -0.0000010005
      5   7  40  39        -0.0000009965
      7   5  39  40        -0.0000009965
      0   5  42  34         0.0000009935
      5   0  34  42         0.0000009935
      1   6  39   3        -0.0000009917
      6   1   3  39        -0.0000009917
      2   7  43  15        -0.0000009902
      7   2  15  43        -0.0000009902
      1   1  19  19        -0.0000009866
      0   4  23  18        -0.0000009805
      4   0  18  23        -0.0000009805
      1   7  21  38         0.0000009775
      7   1  38  21         0.0000009775
      6   7  43  28        -0.0000009754
      7   6  28  43        -0.0000009754
      0   5  30   2         0.0000009697
      5   0   2  30         0.0000009697
      0   5  30  25         0.0000009598
      5   0  25  30         0.0000009598
      2   5  33  17         0.0000009572
      5   2  17  33         0.0000009572
      0   4  16  29         0.0000009551
      4   0  29  16         0.0000009551
      1   6  43   7         0.0000009524
      6   1   7  43         0.0000009524
      0   3  27   7         0.0000009510
      3   0   7  27         0.0000009510
      1   3  14  19        -0.0000009509
      3   1  19  14        -0.0000009509
      4   7  28  36         0.0000009413
      7   4  36  28         0.0000009413
      0   4  43   9        -0.0000009400
      4   0   9  43        -0.0000009400
      0   5  18  43        -0.0000009399
      5   0  43  18        -0.0000009399
      2   7  23  42        -0.0000009350
      7   2  42  23        -0.0000009350
      1   4  20  19         0.0000009308
      4   1  19  20         0.0000009308
      1   3  42  19         0.0000009308
      3   1  19  42         0.0000009308
      4   5   0  42        -0.0000009244
      5   4  42   0        -0.0000009244
      1   4  42  29         0.0000009101
      4   1  29  42         0.0000009101
      0   5  13  18        -0.0000009080
      5   0  18  13        -0.0000009080
      1   6  43   8         0.0000008954
      6   1   8  43         0.0000008954
      1   7  39  43        -0.0000008924
      7   1  43  39        -0.0000008924
      0   3  19  35        -0.0000008869
      3   0  35  19        -0.0000008869
      1   5  30  43         0.0000008844
      5   1  43  30         0.0000008844
      1   7  43  33         0.0000008719
      7   1  33  43         0.0000008719
      2   5  43   1        -0.0000008706
      5   2   1  43        -0.0000008706
      1   5  11  18        -0.0000008618
      5   1  18  11        -0.0000008618
      0   7  39  42        -0.0000008596
      7   0  42  39        -0.0000008596
      0   4  42   6        -0.0000008586
      4   0   6  42        -0.0000008586
      1   3  18  37         0.0000008576
      3   1  37  18         0.0000008576
      0   0  14  19        -0.0000008527
      0   0  19  14        -0.0000008527
      1   1   3  24         0.0000008518
      1   1  24   3         0.0000008518
      1   1   8  20        -0.0000008484
      1   1  20   8        -0.0000008484
      2   6  43   4         0.0000008443
      6   2   4  43         0.0000008443
      0   1  17  26         0.0000008420
      1   0  26  17         0.0000008420
      1   2  23  32         0.0000008403
      2   1  32  23         0.0000008403
      0   4  42  27        -0.0000008400
      4   0  27  42        -0.0000008400
      1   3  11  30        -0.0000008255
      3   1  30  11        -0.0000008255
      1   1  30  34        -0.0000008175
      1   1  34  30        -0.0000008175
      6   7   2  42         0.0000008079
      7   6  42   2         0.0000008079
      7   7  34  42         0.0000008073
      7   7  42  34         0.0000008073
      1   5  26  39        -0.0000007994
      5   1  39  26        -0.0000007994
      1   4  29   2        -0.0000007977
      4   1   2  29        -0.0000007977
      0   5  41  18        -0.0000007968
      5   0  18  41        -0.0000007968
      0   0  30  34        -0.0000007866
      0   0  34  30        -0.0000007866
      1   5  42  18        -0.0000007829
      5   1  18  42        -0.0000007829
      0   5  21  42        -0.0000007779
      5   0  42  21        -0.0000007779
      0   3   5  18         0.0000007701
      3   0  18   5         0.0000007701
      1   7  43  23         0.0000007570
      7   1  23  43         0.0000007570
      6   7   1  43        -0.0000007517
      7   6  43   1        -0.0000007517
      0   3  11  12         0.0000007441
      3   0  12  11         0.0000007441
      2   6  41  26        -0.0000007414
      6   2  26  41        -0.0000007414
      1   4  13  10        -0.0000007318
      4   1  10  13        -0.0000007318
      4   7  43  34         0.0000007315
      7   4  34  43         0.0000007315
      0   7   6  16        -0.0000007215
      7   0  16   6        -0.0000007215
      1   6  21  38         0.0000007104
      6   1  38  21         0.0000007104
      0   4  26  40        -0.0000007084
      4   0  40  26        -0.0000007084
      1   7  42  27        -0.0000007014
      7   1  27  42        -0.0000007014
      0   6  42   7        -0.0000007005
      6   0   7  42        -0.0000007005
      4   6   2  18        -0.0000006947
      6   4  18   2        -0.0000006947
      0   2  11  30         0.0000006894
      2   0  30  11         0.0000006894
      1   5  43  19        -0.0000006875
      5   1  19  43        -0.0000006875
      0   1  19   3        -0.0000006810
      1   0   3  19        -0.0000006810
      3   3  25  42         0.0000006764
      3   3  42  25         0.0000006764
      0   6   8  42        -0.0000006719
      6   0  42   8        -0.0000006719
      0   4  27  25        -0.0000006718
      4   0  25  27        -0.0000006718
      4   5  42   0         0.0000006709
      5   4   0  42         0.0000006709
      2   3  30  43        -0.0000006665
      3   2  43  30        -0.0000006665
      6   6  14  42        -0.0000006615
      6   6  42  14        -0.0000006615
      0   7  27  35        -0.0000006586
      7   0  35  27        -0.0000006586
      3   5  18  42        -0.0000006540
      5   3  42  18        -0.0000006540
      0   6  43  15         0.0000006500
      6   0  15  43         0.0000006500
      1   3   5  40         0.0000006494
      3   1  40   5         0.0000006494
      1   5  30   1         0.0000006461
      5   1   1  30         0.0000006461
      5   6  42  23         0.0000006449
      6   5  23  42         0.0000006449
      0   1  30  16        -0.0000006448
      1   0  16  30        -0.0000006448
      0   5  26  27         0.0000006415
      5   0  27  26         0.0000006415
      4   4  21  30        -0.0000006311
      4   4  30  21        -0.0000006311
      1   3   6  26        -0.0000006296
      3   1  26   6        -0.0000006296
      2   2  16  37         0.0000006235
      2   2  37  16         0.0000006235
      0   1   3  19        -0.0000006206
      1   0  19   3        -0.0000006206
      1   4  26  35         0.0000006179
      4   1  35  26         0.0000006179
      1   3  15  26        -0.0000006170
      3   1  26  15        -0.0000006170
      0   0   6  26        -0.0000006157
      0   0  26   6        -0.0000006157
      0   6  23  14         0.0000006137
      6   0  14  23         0.0000006137
      1   5  25  24        -0.0000006067
      5   1  24  25        -0.0000006067
      0   6  43  10         0.0000006019
      6   0  10  43         0.0000006019
      0   3  14  31        -0.0000005998
      3   0  31  14        -0.0000005998
      0   4  43   7         0.0000005997
      4   0   7  43         0.0000005997
      3   6  42  26        -0.0000005953
      6   3  26  42        -0.0000005953
      0   7  43  10         0.0000005870
      7   0  10  43         0.0000005870
      0   7  13  15         0.0000005855
      7   0  15  13         0.0000005855
      5   7  42  23        -0.0000005753
      7   5  23  42        -0.0000005753
      1   4  42   9        -0.0000005717
      4   1   9  42        -0.0000005717
      0   7  19  20         0.0000005694
      7   0  20  19         0.0000005694
      0   3  20  15        -0.0000005610
      3   0  15  20        -0.0000005610
      0   4  40  26        -0.0000005570
      4   0  26  40        -0.0000005570
      1   4  42  20        -0.0000005567
      4   1  20  42        -0.0000005567
      0   7  42  20         0.0000005564
      7   0  20  42         0.0000005564
      0   4  32   2        -0.0000005483
      4   0   2  32        -0.0000005483
      1   5  18  36         0.0000005445
      5   1  36  18         0.0000005445
      1   2  10  29         0.0000005442
      2   1  29  10         0.0000005442
      1   4   1  10         0.0000005429
      4   1  10   1         0.0000005429
      0   5  43  18        -0.0000005373
      5   0  18  43        -0.0000005373
      4   6  18  42         0.0000005333
      6   4  42  18         0.0000005333
      1   1  14  19        -0.0000005252
      1   1  19  14        -0.0000005252
      1   7  43   7        -0.0000005231
      7   1   7  43        -0.0000005231
      4   5   6  42        -0.0000005179
      5   4  42   6        -0.0000005179
      0   2   6  22        -0.0000005172
      2   0  22   6        -0.0000005172
      0   3  30  24        -0.0000004982
      3   0  24  30        -0.0000004982
      1   4   2   8         0.0000004970
      4   1   8   2         0.0000004970
      0   3   1  30        -0.0000004945
      3   0  30   1        -0.0000004945
      4   7  42  28         0.0000004936
      7   4  28  42         0.0000004936
      1   1   5  30        -0.0000004898
      1   1  30   5        -0.0000004898
      1   4  43  26        -0.0000004839
      4   1  26  43        -0.0000004839
      0   5  34  19         0.0000004838
      5   0  19  34         0.0000004838
      0   4  43  29         0.0000004830
      4   0  29  43         0.0000004830
      3   5  42  18        -0.0000004697
      5   3  18  42        -0.0000004697
      6   7  42   2         0.0000004692
      7   6   2  42         0.0000004692
      0   1  25  18        -0.0000004630
      1   0  18  25        -0.0000004630
      2   4  42  10         0.0000004530
      4   2  10  42         0.0000004530
      0   3  32  33         0.0000004486
      3   0  33  32         0.0000004486
      1   2  14   3        -0.0000004428
      2   1   3  14        -0.0000004428
      5   6   4  43        -0.0000004325
      6   5  43   4        -0.0000004325
      0   4   2  10        -0.0000004256
      4   0  10   2        -0.0000004256
      0   6  43  27        -0.0000004186
      6   0  27  43        -0.0000004186
      0   6  43   6        -0.0000004026
      6   0   6  43        -0.0000004026
      0   6  42   9         0.0000003990
      6   0   9  42         0.0000003990
      1   2  13  19        -0.0000003848
      2   1  19  13        -0.0000003848
      0   4  42  10         0.0000003839
      4   0  10  42         0.0000003839
      3   7  42  32        -0.0000003811
      7   3  32  42        -0.0000003811
      0   4  11  10         0.0000003718
      4   0  10  11         0.0000003718
      0   6  42  29        -0.0000003548
      6   0  29  42        -0.0000003548
      1   5  18  42        -0.0000003541
      5   1  42  18        -0.0000003541
      0   3  21  31        -0.0000003455
      3   0  31  21        -0.0000003455
      0   5  30  42         0.0000003366
      5   0  42  30         0.0000003366
      5   7  17  42        -0.0000003347
      7   5  42  17        -0.0000003347
      6   7  42  21        -0.0000003332
      7   6  21  42        -0.0000003332
      0   6  43  32        -0.0000003270
      6   0  32  43        -0.0000003270
      4   5   3  33        -0.0000003205
      5   4  33   3        -0.0000003205
      1   6  27   2         0.0000003147
      6   1   2  27         0.0000003147
      1   1  19  21         0.0000003136
      1   1  21  19         0.0000003136
      0   4  26   5         0.0000003129
      4   0   5  26         0.0000003129
      3   7  20  41        -0.0000003121
      7   3  41  20        -0.0000003121
      0   6  32  24         0.0000003041
      6   0  24  32         0.0000003041
      0   7  32  16        -0.0000002885
      7   0  16  32        -0.0000002885
      1   4  18  22        -0.0000002830
      4   1  22  18        -0.0000002830
      1   6  21  15         0.0000002829
      6   1  15  21         0.0000002829
      0   5  18  35        -0.0000002828
      5   0  35  18        -0.0000002828
      1   6  19  38        -0.0000002753
      6   1  38  19        -0.0000002753
      1   4  43  10        -0.0000002686
      4   1  10  43        -0.0000002686
      0   4  43  20         0.0000002444
      4   0  20  43         0.0000002444
      0   5  31  18        -0.0000002366
      5   0  18  31        -0.0000002366
      2   3  39  32         0.0000002346
      3   2  32  39         0.0000002346
      0   6  16   6        -0.0000002267
      6   0   6  16        -0.0000002267
      0   2  16   1         0.0000002198
      2   0   1  16         0.0000002198
      0   1  14  12        -0.0000002150
      1   0  12  14        -0.0000002150
      6   7  18  37         0.0000002113
      7   6  37  18         0.0000002113
      0   5  43  16         0.0000001972
      5   0  16  43         0.0000001972
      1   4  30  20        -0.0000001952
      4   1  20  30        -0.0000001952
      0   5  42  19         0.0000001899
      5   0  19  42         0.0000001899
      2   3  18  42         0.0000001736
      3   2  42  18         0.0000001736
      0   5  29  23         0.0000001687
      5   0  23  29         0.0000001687
      3   5  19  16        -0.0000001674
      5   3  16  19        -0.0000001674
      1   5  13  19         0.0000001644
      5   1  19  13         0.0000001644
      0   1  18  25        -0.0000001610
      1   0  25  18        -0.0000001610
      3   5  42  43         0.0000001519
      5   3  43  42         0.0000001519
      0   7  43  15         0.0000001381
      7   0  15  43         0.0000001381
      4   7  36  43         0.0000001151
      7   4  43  36         0.0000001151
      2   3  43  19        -0.0000001032
      3   2  19  43        -0.0000001032
      3   4  17  42         0.0000001011
      4   3  42  17         0.0000001011
      0   7  43   6        -0.0000000915
      7   0   6  43        -0.0000000915
      0   0  19  21        -0.0000000909
      0   0  21  19        -0.0000000909
      1   4  43   6        -0.0000000870
      4   1   6  43        -0.0000000870
      1   5  18  21         0.0000000851
      5   1  21  18         0.0000000851
      4   4  30  42         0.0000000649
      4   4  42  30         0.0000000649
      0   4  17  35        -0.0000000625
      4   0  35  17        -0.0000000625
      0   4  36   6         0.0000000615
      4   0   6  36         0.0000000615
      1   5  43  36        -0.0000000573
      5   1  36  43        -0.0000000573
      2   4  26  42         0.0000000477
      4   2  42  26         0.0000000477
      1   2  23  26         0.0000000267
      2   1  26  23         0.0000000267
      0   4  43   8         0.0000000188
      4   0   8  43         0.0000000188
      4   7  41  42         0.0000000142
      7   4  42  41         0.0000000142
      1   4  30  29        -0.0000000138
      4   1  29  30        -0.0000000138

    SCF energy       (wfn)                    =  -78.013260907462822
    Reference energy (file100)                =  -78.013260907462723

    Opposite-spin MP2 correlation energy      =   -0.245684553320385
    Same-spin MP2 correlation energy          =   -0.060702443392659
    MP2 correlation energy                    =   -0.306386996713045
      * MP2 total energy                      =  -78.319647904175767

    Opposite-spin CCSD correlation energy     =   -0.283588062991784
    Same-spin CCSD correlation energy         =   -0.054982433872983
    CCSD correlation energy                   =   -0.338570496864766
      * CCSD total energy                     =  -78.351831404327484


*** tstop() called on Berts-MacBook-Pro.local at Wed Dec  6 21:50:58 2017
Module time:
	user time   =     147.64 seconds =       2.46 minutes
	system time =       1.43 seconds =       0.02 minutes
	total time  =        149 seconds =       2.48 minutes
Total time:
	user time   =     204.19 seconds =       3.40 minutes
	system time =       2.62 seconds =       0.04 minutes
	total time  =        207 seconds =       3.45 minutes

*** Psi4 exiting successfully. Buy a developer a beer!
