
    -----------------------------------------------------------------------
          Psi4: An Open-Source Ab Initio Electronic Structure Package
                               Psi4 1.1 release

                         Git: Rev {HEAD} add49b9 


    R. M. Parrish, L. A. Burns, D. G. A. Smith, A. C. Simmonett,
    A. E. DePrince III, E. G. Hohenstein, U. Bozkaya, A. Yu. Sokolov,
    R. Di Remigio, R. M. Richard, J. F. Gonthier, A. M. James,
    H. R. McAlexander, A. Kumar, M. Saitow, X. Wang, B. P. Pritchard,
    P. Verma, H. F. Schaefer III, K. Patkowski, R. A. King, E. F. Valeev,
    F. A. Evangelista, J. M. Turney, T. D. Crawford, and C. D. Sherrill,
    J. Chem. Theory Comput. in press (2017).
    (doi: 10.1021/acs.jctc.7b00174)

    -----------------------------------------------------------------------


    Psi4 started on: Wednesday, 06 December 2017 10:38PM

    Process ID:  12105
    PSIDATADIR: /anaconda3/share/psi4
    Memory:     500.0 MiB
    Threads:    1
    
  ==> Input File <==

--------------------------------------------------------------------------
"""This is a template for psi4 input format."""
import numpy
import sys

from openfermion.config import *
from openfermion.ops._interaction_tensor import (one_body_basis_change,
                                              two_body_basis_change)
from openfermion.hamiltonians import MolecularData
from numpy import array

sys.path.append('/Users/wadejong/Desktop/Quantum-Computing/OpenFermion/OpenFermion-Psi4/openfermionpsi4')
from _psi4_conversion_functions import *

# Set number of threads in PSI4
set_num_threads(8)

# Set memory that job can use in megabytes.
memory 8000 mb

# Initialize molecular data.
_description = 'ethylene_1.80642'
if _description == 'None':
    _description = None
molecule = MolecularData([['C', array([ 0.      ,  0.      ,  0.673055])], ['C', array([ 0.      ,  0.      , -0.673055])], ['H', array([ 0.      ,  0.934981,  1.246807])], ['H', array([ 0.      , -0.934981,  1.246807])], ['H', array([ 0.9091474 ,  0.21826698, -1.246807  ])], ['H', array([-0.9091474 , -0.21826698, -1.246807  ])]],
                         'DZP',
                         1,
                         0,
                         _description,
                          filename='/Users/wadejong/Desktop/QCQCSiddiqi/8_Qubit_Simulation/data/H4-C2_DZP_singlet_ethylene_1.80642')

# Set molecular geometry and symmetry.
molecule mol {
C 0.0 0.0 0.673055
C 0.0 0.0 -0.673055
H 0.0 0.934981 1.246807
H 0.0 -0.934981 1.246807
H 0.9091474005433401 0.2182669797433582 -1.246807
H -0.9091474005433401 -0.2182669797433582 -1.246807
symmetry c1
}
mol.set_multiplicity(1)
mol.set_molecular_charge(0)

# Set reference and guess.
if molecule.multiplicity == 1:
    set reference rhf
    set guess sad
    set sad_frac_occ true
else:
    set reference rohf
    set guess sad
    set sad_frac_occ true

# Set global parameters of calculation.
set globals {
    basis DZP
    freeze_core false
    fail_on_maxiter true
    df_scf_guess false
    guess sad
    sad_frac_occ true
    opdm false
    tpdm false
    soscf true
    scf_type pk
    diis true
    maxiter 1e6
    num_amps_print 1e6
    r_convergence 1e-7
    d_convergence 1e-7
    e_convergence 1e-7
    ints_tolerance EQUALITY_TOLERANCE
    damping_percentage 0
}

# Run self-consistent field (SCF) calculation.
if True:
    try:

        hf_energy, hf_wavefunction = energy('scf', return_wfn=True)
        scf_wfn = hf_wavefunction
        if True:
            print('Hartree-Fock energy for {} ({} electrons) is {}.'.format(
                molecule.name, molecule.n_electrons, hf_energy))
    except:
        if True:
            print('WARNING: SCF calculation failed.')
        else:
            raise
    else:
        # Get orbitals and Fock matrix.
        molecule.hf_energy = hf_energy
        molecule.nuclear_repulsion = mol.nuclear_repulsion_energy()
        molecule.canonical_orbitals = numpy.asarray(hf_wavefunction.Ca())
        molecule.n_orbitals = molecule.canonical_orbitals.shape[0]
        molecule.n_qubits = 2 * molecule.n_orbitals
        molecule.orbital_energies = numpy.asarray(hf_wavefunction.epsilon_a())
        molecule.fock_matrix = numpy.asarray(hf_wavefunction.Fa())

        # Get integrals using MintsHelper.
        mints = MintsHelper(hf_wavefunction.basisset())
        molecule.one_body_integrals = one_body_basis_change(
            numpy.asarray(mints.ao_kinetic()), molecule.canonical_orbitals)
        molecule.one_body_integrals += one_body_basis_change(
            numpy.asarray(mints.ao_potential()), molecule.canonical_orbitals)
        two_body_integrals = numpy.asarray(mints.ao_eri())
        two_body_integrals.reshape((molecule.n_orbitals, molecule.n_orbitals,
                                    molecule.n_orbitals, molecule.n_orbitals))
        two_body_integrals = numpy.einsum('psqr', two_body_integrals)
        two_body_integrals = two_body_basis_change(
            two_body_integrals, molecule.canonical_orbitals)
        molecule.two_body_integrals = two_body_integrals
        molecule.save()


# Perform MP2 energy calculation if there are at least two electrons.
if True:
    try:
        assert molecule.n_electrons > 1
        mp2_energy = energy('mp2',ref_wfn=scf_wfn)
        if True:
            print('MP2 energy for {} ({} electrons) is {}.'.format(
                molecule.name, molecule.n_electrons, mp2_energy))
    except:
        if True:
            print('WARNING: MP2 calculation failed.')
        else:
            raise
    else:
        molecule.mp2_energy = mp2_energy
        molecule.save()


# Perform configuration interaction singles and doubles (CISD) calculation.
if True:
    set qc_module detci
    try:
        cisd_energy, cisd_wavefunction = energy('cisd', ref_wfn=scf_wfn, return_wfn=True)
        if True:
            print('CISD energy for {} ({} electrons) is {}.'.format(
                molecule.name, molecule.n_electrons, cisd_energy))
    except:
        if True:
            print('WARNING: CISD calculation failed.')
        else:
            raise
    else:
        # For the functions below, "a" and "b" refer to "up and "down" spins.
        molecule.cisd_energy = cisd_energy

        # Get 1-RDM from CISD calculation.
        """cisd_one_rdm_a = numpy.array(cisd_wavefunction.get_opdm(
            0, 0, 'A', True)).reshape(molecule.n_orbitals, molecule.n_orbitals)
        cisd_one_rdm_b = numpy.array(cisd_wavefunction.get_opdm(
            0, 0, 'B', True)).reshape(molecule.n_orbitals, molecule.n_orbitals)

        # Get 2-RDM from CISD calculation.
        cisd_two_rdm_aa = numpy.array(cisd_wavefunction.get_tpdm(
            'AA', False)).reshape(molecule.n_orbitals, molecule.n_orbitals,
                                  molecule.n_orbitals, molecule.n_orbitals)
        cisd_two_rdm_ab = numpy.array(cisd_wavefunction.get_tpdm(
            'AB', False)).reshape(molecule.n_orbitals, molecule.n_orbitals,
                                  molecule.n_orbitals, molecule.n_orbitals)
        cisd_two_rdm_bb = numpy.array(cisd_wavefunction.get_tpdm(
            'BB', False)).reshape(molecule.n_orbitals, molecule.n_orbitals,
                                  molecule.n_orbitals, molecule.n_orbitals)

        # Get overall RDMs.
        cisd_one_rdm, cisd_two_rdm = unpack_spatial_rdm(
            cisd_one_rdm_a, cisd_one_rdm_b, cisd_two_rdm_aa,
            cisd_two_rdm_ab, cisd_two_rdm_bb)

        # Store 1-RDM in molecule file, 2-RDM separately in other file.
        molecule.cisd_one_rdm = cisd_one_rdm
        molecule.cisd_two_rdm = cisd_two_rdm
        molecule.save()"""


# Perform exact diagonalization.
if False:
    set qc_module detci
    try:
        fci_energy, fci_wavefunction = energy('fci', ref_wfn=scf_wfn, return_wfn=True)
        if True:
            print('FCI energy for {} ({} electrons) is {}.'.format(
                molecule.name, molecule.n_electrons, fci_energy))
    except:
        if True:
            print('WARNING: FCI calculation failed.')
        else:
            raise
    else:
        # For the functions below, "a" and "b" refer to "up and "down" spins.
        molecule.fci_energy = fci_energy

        # Get 1-RDM from FCI calculation.
        """fci_one_rdm_a = numpy.array(fci_wavefunction.get_opdm(
            0, 0, 'A', True)).reshape(molecule.n_orbitals, molecule.n_orbitals)
        fci_one_rdm_b = numpy.array(fci_wavefunction.get_opdm(
            0, 0, 'B', True)).reshape(molecule.n_orbitals, molecule.n_orbitals)

        # Get 2-RDM from FCI calculation.
        fci_two_rdm_aa = numpy.array(fci_wavefunction.get_tpdm(
            'AA', False)).reshape(molecule.n_orbitals, molecule.n_orbitals,
                                  molecule.n_orbitals, molecule.n_orbitals)
        fci_two_rdm_ab = numpy.array(fci_wavefunction.get_tpdm(
            'AB', False)).reshape(molecule.n_orbitals, molecule.n_orbitals,
                                  molecule.n_orbitals, molecule.n_orbitals)
        fci_two_rdm_bb = numpy.array(fci_wavefunction.get_tpdm(
            'BB', False)).reshape(molecule.n_orbitals, molecule.n_orbitals,
                                  molecule.n_orbitals, molecule.n_orbitals)

        # Get overall RDMs.
        fci_one_rdm, fci_two_rdm = unpack_spatial_rdm(
            fci_one_rdm_a, fci_one_rdm_b,
            fci_two_rdm_aa, fci_two_rdm_ab, fci_two_rdm_bb)

        # Store 1-RDM in molecule file, 2-RDM separately in other file.
        molecule.fci_one_rdm = fci_one_rdm
        molecule.fci_two_rdm = fci_two_rdm
        molecule.save()"""


# Perform coupled cluster singles and doubles (CCSD) calculation.
if True:
    set qc_module ccenergy
    try:
        ccsd_energy = energy('ccsd',ref_wfn=scf_wfn)
        if True:
            print('CCSD energy for {} ({} electrons) is {}.'.format(
                molecule.name, molecule.n_electrons, ccsd_energy))
    except:
        if True:
            print('WARNING: CCSD calculation failed.')
        else:
            raise
    else:
        molecule.ccsd_energy = ccsd_energy

        # Merge CC amplitudes into molecule by parsing
        psi_filename = outfile_name()
        ccsd_amplitudes = parse_psi4_ccsd_amplitudes(
            2 * molecule.n_orbitals,
            molecule.get_n_alpha_electrons(),
            molecule.get_n_beta_electrons(),
            psi_filename)
        molecule.ccsd_amplitudes = ccsd_amplitudes
        molecule.save()
--------------------------------------------------------------------------
  Python driver attempted to set threads to 8.
  Psi4 was compiled without OpenMP, setting threads to 1.

  Memory set to   7.451 GiB by Python driver.

*** tstart() called on Berts-MacBook-Pro.local
*** at Wed Dec  6 22:38:11 2017

   => Loading Basis Set <=

    Name: DZP
    Role: ORBITAL
    Keyword: BASIS
    atoms 1-2 entry C          line    73 file /anaconda3/share/psi4/basis/dzp.gbs 
    atoms 3-6 entry H          line    16 file /anaconda3/share/psi4/basis/dzp.gbs 


         ---------------------------------------------------------
                                   SCF
            by Justin Turney, Rob Parrish, and Andy Simmonett
                              RHF Reference
                        1 Threads,   7629 MiB Core
         ---------------------------------------------------------

  ==> Geometry <==

    Molecular point group: c1
    Full point group: D2

    Geometry (in Angstrom), charge = 0, multiplicity = 1:

       Center              X                  Y                   Z               Mass       
    ------------   -----------------  -----------------  -----------------  -----------------
           C          0.000000000000     0.000000000000     0.673055000000    12.000000000000
           C          0.000000000000     0.000000000000    -0.673055000000    12.000000000000
           H         -0.578841079820     0.734256409352     1.246807000000     1.007825032070
           H          0.578841079820    -0.734256409352     1.246807000000     1.007825032070
           H          0.578841079820     0.734256409352    -1.246807000000     1.007825032070
           H         -0.578841079820    -0.734256409352    -1.246807000000     1.007825032070

  Running in c1 symmetry.

  Rotational constants: A =      4.78350  B =      0.91174  C =      0.87290 [cm^-1]
  Rotational constants: A = 143405.72603  B =  27333.21506  C =  26168.83729 [MHz]
  Nuclear repulsion =   32.993623335560201

  Charge       = 0
  Multiplicity = 1
  Electrons    = 16
  Nalpha       = 8
  Nbeta        = 8

  ==> Algorithm <==

  SCF Algorithm Type is PK.
  DIIS enabled.
  MOM disabled.
  Fractional occupation disabled.
  Guess Type is SAD.
  Energy threshold   = 1.00e-07
  Density threshold  = 1.00e-07
  Integral threshold = 0.00e+00

  ==> Primary Basis <==

  Basis Set: DZP
    Blend: DZP
    Number of shells: 26
    Number of basis function: 52
    Number of Cartesian functions: 52
    Spherical Harmonics?: false
    Max angular momentum: 2

  ==> Pre-Iterations <==

   -------------------------------------------------------
    Irrep   Nso     Nmo     Nalpha   Nbeta   Ndocc  Nsocc
   -------------------------------------------------------
     A         52      52       0       0       0       0
   -------------------------------------------------------
    Total      52      52       8       8       8       0
   -------------------------------------------------------

  ==> Integral Setup <==

  Using in-core PK algorithm.
   Calculation information:
      Number of atoms:                   6
      Number of AO shells:              26
      Number of primitives:             50
      Number of atomic orbitals:        52
      Number of basis functions:        52

      Integral cutoff                 1.00e-12
      Number of threads:                 1

  Performing in-core PK
  Using 1900262 doubles for integral storage.
  We computed 61769 shell quartets total.
  Whereas there are 61776 unique shell quartets.
  ==> DiskJK: Disk-Based J/K Matrices <==

    J tasked:                  Yes
    K tasked:                  Yes
    wK tasked:                  No
    Memory (MB):              5722
    Schwarz Cutoff:          1E-12

    OpenMP threads:              1
  Minimum eigenvalue in the overlap matrix is 9.1328126333E-03.
  Using Symmetric Orthogonalization.

  SCF Guess: Superposition of Atomic Densities via on-the-fly atomic UHF.

  ==> Iterations <==

                        Total Energy        Delta E     RMS |[F,P]|

   @RHF iter   0:   -69.16367836296391   -6.91637e+01   1.01492e-01 
   @RHF iter   1:   -74.13880149717082   -4.97512e+00   4.01532e-02 
   @RHF iter   2:   -77.01296193532795   -2.87416e+00   2.47859e-02 DIIS/DAMP
   @RHF iter   3:   -77.91027703356171   -8.97315e-01   2.45798e-03 DIIS/DAMP
   @RHF iter   4:   -77.92304816922288   -1.27711e-02   4.61069e-04 SOSCF, nmicro = 4/DAMP
   @RHF iter   5:   -77.92390848561176   -8.60316e-04   2.48343e-06 SOSCF, nmicro = 4/DAMP
   @RHF iter   6:   -77.92390850268312   -1.70714e-08   7.87874e-09 SOSCF, conv/DAMP

  ==> Post-Iterations <==

    Orbital Energies (a.u.)
    -----------------------

    Doubly Occupied:                                                      

       1A    -11.250137     2A    -11.248655     3A     -1.032147  
       4A     -0.791273     5A     -0.608618     6A     -0.587407  
       7A     -0.570579     8A     -0.280139  

    Virtual:                                                              

       9A      0.065108    10A      0.256970    11A      0.323001  
      12A      0.324127    13A      0.411767    14A      0.416014  
      15A      0.443383    16A      0.455119    17A      0.470011  
      18A      0.561119    19A      0.584145    20A      0.691591  
      21A      0.813998    22A      1.003076    23A      1.221365  
      24A      1.283643    25A      1.293747    26A      1.351771  
      27A      1.532988    28A      1.656863    29A      1.809415  
      30A      1.927258    31A      1.967226    32A      2.022123  
      33A      2.087890    34A      2.110101    35A      2.250093  
      36A      2.429751    37A      2.458965    38A      2.464966  
      39A      2.572020    40A      2.809761    41A      2.889121  
      42A      2.906267    43A      2.935960    44A      3.190541  
      45A      3.385541    46A      3.531641    47A      3.606037  
      48A      3.704425    49A      4.260580    50A      4.486147  
      51A     27.639337    52A     27.649579  

    Final Occupation by Irrep:
              A 
    DOCC [     8 ]

  Energy converged.

  @RHF Final Energy:   -77.92390850268312

   => Energetics <=

    Nuclear Repulsion Energy =             32.9936233355602013
    One-Electron Energy =                -169.0971515894439960
    Two-Electron Energy =                  58.1796197512006614
    DFT Exchange-Correlation Energy =       0.0000000000000000
    Empirical Dispersion Energy =           0.0000000000000000
    PCM Polarization Energy =               0.0000000000000000
    EFP Energy =                            0.0000000000000000
    Total Energy =                        -77.9239085026831191



Properties will be evaluated at   0.000000,   0.000000,   0.000000 Bohr

Properties computed using the SCF density matrix

  Nuclear Dipole Moment: (a.u.)
     X:     0.0000      Y:     0.0000      Z:     0.0000

  Electronic Dipole Moment: (a.u.)
     X:    -0.0000      Y:     0.0000      Z:    -0.0000

  Dipole Moment: (a.u.)
     X:    -0.0000      Y:     0.0000      Z:    -0.0000     Total:     0.0000

  Dipole Moment: (Debye)
     X:    -0.0000      Y:     0.0000      Z:    -0.0000     Total:     0.0000


*** tstop() called on Berts-MacBook-Pro.local at Wed Dec  6 22:38:11 2017
Module time:
	user time   =       0.39 seconds =       0.01 minutes
	system time =       0.05 seconds =       0.00 minutes
	total time  =          0 seconds =       0.00 minutes
Total time:
	user time   =       0.39 seconds =       0.01 minutes
	system time =       0.05 seconds =       0.00 minutes
	total time  =          0 seconds =       0.00 minutes

*** tstart() called on Berts-MacBook-Pro.local
*** at Wed Dec  6 22:38:15 2017


  //>>>>>>>>>>>>>>>>>>>>>>>>>>>>>>>>>>>//
  //               DFMP2               //
  //<<<<<<<<<<<<<<<<<<<<<<<<<<<<<<<<<<<//

   => Loading Basis Set <=

    Name: (DZP AUX)
    Role: RIFIT
    Keyword: DF_BASIS_MP2
    atoms 1-2 entry C          line   269 file /anaconda3/share/psi4/basis/def2-qzvpp-ri.gbs 
    atoms 3-6 entry H          line    23 file /anaconda3/share/psi4/basis/def2-qzvpp-ri.gbs 

	 --------------------------------------------------------
	                          DF-MP2                         
	      2nd-Order Density-Fitted Moller-Plesset Theory     
	              RMP2 Wavefunction,   1 Threads             
	                                                         
	        Rob Parrish, Justin Turney, Andy Simmonett,      
	           Ed Hohenstein, and C. David Sherrill          
	 --------------------------------------------------------

   => Auxiliary Basis Set <=

  Basis Set: (DZP AUX)
    Blend: DEF2-QZVPP-RI
    Number of shells: 130
    Number of basis function: 506
    Number of Cartesian functions: 666
    Spherical Harmonics?: true
    Max angular momentum: 5

	 --------------------------------------------------------
	                 NBF =    52, NAUX =   506
	 --------------------------------------------------------
	   CLASS    FOCC     OCC    AOCC    AVIR     VIR    FVIR
	   PAIRS       0       8       8      44      44       0
	 --------------------------------------------------------

	-----------------------------------------------------------
	 ==================> DF-MP2 Energies <==================== 
	-----------------------------------------------------------
	 Reference Energy          =     -77.9239085026831191 [Eh]
	 Singles Energy            =      -0.0000000000000000 [Eh]
	 Same-Spin Energy          =      -0.0616030332327214 [Eh]
	 Opposite-Spin Energy      =      -0.2512113331258433 [Eh]
	 Correlation Energy        =      -0.3128143663585647 [Eh]
	 Total Energy              =     -78.2367228690416852 [Eh]
	-----------------------------------------------------------
	 ================> DF-SCS-MP2 Energies <================== 
	-----------------------------------------------------------
	 SCS Same-Spin Scale       =       0.3333333333333333 [-]
	 SCS Opposite-Spin Scale   =       1.2000000000000000 [-]
	 SCS Same-Spin Energy      =      -0.0205343444109071 [Eh]
	 SCS Opposite-Spin Energy  =      -0.3014535997510120 [Eh]
	 SCS Correlation Energy    =      -0.3219879441619191 [Eh]
	 SCS Total Energy          =     -78.2458964468450375 [Eh]
	-----------------------------------------------------------


*** tstop() called on Berts-MacBook-Pro.local at Wed Dec  6 22:38:16 2017
Module time:
	user time   =       0.30 seconds =       0.00 minutes
	system time =       0.05 seconds =       0.00 minutes
	total time  =          1 seconds =       0.02 minutes
Total time:
	user time   =       4.66 seconds =       0.08 minutes
	system time =       0.23 seconds =       0.00 minutes
	total time  =          5 seconds =       0.08 minutes
 MINTS: Wrapper to libmints.
   by Justin Turney

   Calculation information:
      Number of threads:                 1
      Number of atoms:                   6
      Number of AO shells:              26
      Number of SO shells:              26
      Number of primitives:             50
      Number of atomic orbitals:        52
      Number of basis functions:        52

      Number of irreps:                  1
      Integral cutoff                 0.00e+00
      Number of functions per irrep: [  52 ]

 OEINTS: Overlap, kinetic, potential, dipole, and quadrupole integrals
         stored in file 35.

      Computing two-electron integrals...done
      Computed 843048 non-zero two-electron integrals.
        Stored in file 33.


         ---------------------------------------------------------
                          Configuration Interaction
                            (a 'D E T C I' module)

                 C. David Sherrill, Daniel G. A. Smith, and
                              Matt L. Leininger
         ---------------------------------------------------------


   ==> Parameters <==

    EX LEVEL       =        2      H0 BLOCKSIZE  =     1000
    VAL EX LEVEL   =        0      H0 GUESS SIZE =     1000
    H0COUPLINGSIZE =        0      H0 COUPLING   =       NO
    MAXITER        =       24      NUM PRINT     =       20
    NUM ROOTS      =        1      ICORE         =        1
    PRINT LVL      =        1      FCI           =       NO
    R CONV         = 1.00e-07      MIXED         =      YES
    E CONV         = 1.00e-07      MIXED4        =      YES
    R4S            =       NO      REPL OTF      =       NO
    DIAG METHOD    =      SEM      FOLLOW ROOT   =        0
    PRECONDITIONER = DAVIDSON      UPDATE        = DAVIDSON
    S              =   0.0000      Ms0           =      YES
    GUESS VECTOR   =  H0BLOCK      OPENTYPE      =     NONE
    COLLAPSE SIZE  =        1      HD AVG        = EVANGELISTI
    MAX NUM VECS   =       25      REF SYM       =     AUTO
    IOPEN        =       NO

    EX ALLOW       =  1  1 
    STATE AVERAGE  =  0(1.00) 

   ==> CI Orbital and Space information <==

    RAS1 LVL      =        7      A RAS3 MAX    =        2
    RAS1 MIN      =       14      B RAS3 MAX    =        2
    A RAS1 LVL    =        7      RAS4 LVL      =       52
    A RAS1 MIN    =        6      A RAS4 MAX    =        0
    A RAS1 MAX    =        8      B RAS4 MAX    =        0
    B RAS1 LVL    =        7      RAS4 MAX      =        0
    B RAS1 MIN    =        6      A RAS34 MAX   =        2
    B RAS1 MAX    =        8      B RAS34 MAX   =        2
    RAS3 LVL      =        8      RAS34 MAX     =        2
    RAS3 MAX      =        2
   ------------------------------------
               Space    Total     A
   ------------------------------------
                 Nso       52    52
                 Nmo       52    52
               Ndocc        8     8
               Nsocc        0     0
   ------------------------------------
              CI Spaces
   ------------------------------------
        Dropped DOCC        0     0
                RAS1        8     8
                RAS2        0     0
                RAS3       44    44
                RAS4        0     0
      Active (total)       52    52
        Dropped UOCC        0     0
   ------------------------------------

   ==> Setting up CI strings <==

    There are 26841 alpha and 26841 beta strings
    The CI space requires 177585 (1.78E+05) determinants and 6 blocks

   ==> Transforming CI integrals <==

	Presorting SO-basis two-electron integrals.
	Sorting File: SO Ints (nn|nn) nbuckets = 1
	Transforming the one-electron integrals and constructing Fock matrices
	Starting first half-transformation.
	Sorting half-transformed integrals.
	First half integral transformation complete.
	Starting second half-transformation.
	Two-electron integral transformation complete.

   ==> Starting CI iterations <==

    H0 Block Eigenvalue = -77.98248908

    Simultaneous Expansion Method (Block Davidson Method)
    Using 1 initial trial vectors

     Iter   Root       Total Energy       Delta E      C RMS

   @CI  0:     0    -77.982489080379   -1.1098E+02   1.4008E+00  
   @CI  1:     0    -78.203787768071   -2.2130E-01   1.6563E-01  
   @CI  2:     0    -78.234553400162   -3.0766E-02   9.4762E-02  
   @CI  3:     0    -78.240283207401   -5.7298E-03   3.0869E-02  
   @CI  4:     0    -78.240670468789   -3.8726E-04   8.2289E-03  
   @CI  5:     0    -78.240700993112   -3.0524E-05   2.3922E-03  
   @CI  6:     0    -78.240703328096   -2.3350E-06   6.9878E-04  
   @CI  7:     0    -78.240703511053   -1.8296E-07   1.9503E-04  
   @CI  8:     0    -78.240703524064   -1.3011E-08   4.7984E-05  
   @CI  9:     0    -78.240703524830   -7.6629E-10   1.1842E-05  
   @CI 10:     0    -78.240703524876   -4.6228E-11   2.6247E-06  
   @CI 11:     0    -78.240703524878   -2.1600E-12   5.5070E-07  
    Warning: Norm of correction (root 0) is < 1.0E-13
   @CI 12:     0    -78.240703524878   -1.1369E-13   1.3864E-07  
    Warning: Norm of correction (root 0) is < 1.0E-13
   @CI 13:     0    -78.240703524878   2.8422E-14   3.5007E-08 c

   ==> Energetics <==

    SCF energy =            0.000000000000000
    Total CI energy =     -78.240703524878427

   ==> CISD root 0 information <==

    CISD Root 0 energy =   -78.240703524878427

   The 20 most important determinants:

    *   1   -0.942404  (    0,    0)  1AX 2AX 3AX 4AX 5AX 6AX 7AX 8AX 
    *   2    0.135362  (    1,    1)  1AX 2AX 3AX 4AX 5AX 6AX 7AX 9AX 
    *   3    0.044028  (    1,   81)  1AX 2AX 3AX 4AX 5AX 6AX 7AX 9AA 19AB 
    *   4    0.044028  (   81,    1)  1AX 2AX 3AX 4AX 5AX 6AX 7AX 9AB 19AA 
    *   5   -0.032752  (    1,    2)  1AX 2AX 3AX 4AX 5AX 6AX 7AA 8AB 9AX 
    *   6   -0.032752  (    2,    1)  1AX 2AX 3AX 4AX 5AX 6AX 7AB 8AA 9AX 
    *   7    0.027046  (   99,   99)  1AX 2AX 3AX 4AX 5AX 7AX 8AX 21AX 
    *   8    0.023599  (    2,    2)  1AX 2AX 3AX 4AX 5AX 6AX 8AX 9AX 
    *   9    0.021370  (    1,   99)  1AX 2AX 3AX 4AX 5AX 6AA 7AX 8AB 9AA 21AB 
    *  10    0.021370  (   99,    1)  1AX 2AX 3AX 4AX 5AX 6AB 7AX 8AA 9AB 21AA 
    *  11    0.020642  (   73,   73)  1AX 2AX 3AX 4AX 5AX 6AX 7AX 18AX 
    *  12   -0.020578  (    0,   73)  1AX 2AX 3AX 4AX 5AX 6AX 7AX 8AA 18AB 
    *  13   -0.020578  (   73,    0)  1AX 2AX 3AX 4AX 5AX 6AX 7AX 8AB 18AA 
    *  14    0.020515  (   81,   81)  1AX 2AX 3AX 4AX 5AX 6AX 7AX 19AX 
    *  15    0.019198  (    5,    5)  1AX 2AX 3AX 5AX 6AX 7AX 8AX 9AX 
    *  16   -0.018653  (    2,   81)  1AX 2AX 3AX 4AX 5AX 6AX 7AB 8AA 9AA 19AB 
    *  17   -0.018653  (   81,    2)  1AX 2AX 3AX 4AX 5AX 6AX 7AA 8AB 9AB 19AA 
    *  18    0.018341  (   44,   44)  1AX 2AX 3AX 4AX 6AX 7AX 8AX 14AX 
    *  19    0.017945  (   35,   35)  1AX 2AX 3AX 4AX 5AX 7AX 8AX 13AX 
    *  20    0.016927  (   81,   99)  1AX 2AX 3AX 4AX 5AX 6AA 7AX 8AB 19AA 21AB 

		 "A good bug is a dead bug" 

			 - Starship Troopers

		 "I didn't write FORTRAN.  That's the problem."

			 - Edward Valeev
 MINTS: Wrapper to libmints.
   by Justin Turney

   Calculation information:
      Number of threads:                 1
      Number of atoms:                   6
      Number of AO shells:              26
      Number of SO shells:              26
      Number of primitives:             50
      Number of atomic orbitals:        52
      Number of basis functions:        52

      Number of irreps:                  1
      Integral cutoff                 0.00e+00
      Number of functions per irrep: [  52 ]

 OEINTS: Overlap, kinetic, potential, dipole, and quadrupole integrals
         stored in file 35.

      Computing two-electron integrals...done
      Computed 843048 non-zero two-electron integrals.
        Stored in file 33.


*** tstart() called on Berts-MacBook-Pro.local
*** at Wed Dec  6 22:39:11 2017


	Wfn Parameters:
	--------------------
	Wavefunction         = CCSD
	Number of irreps     = 1
	Number of MOs        = 52
	Number of active MOs = 52
	AO-Basis             = NONE
	Semicanonical        = false
	Reference            = RHF
	Print Level          = 1

	IRREP	# MOs	# FZDC	# DOCC	# SOCC	# VIRT	# FZVR
	-----	-----	------	------	------	------	------
	 A	   52	    0	    8	    0	    44	    0
	Transforming integrals...
	IWL integrals will be deleted.
	(OO|OO)...
	Presorting SO-basis two-electron integrals.
	Sorting File: SO Ints (nn|nn) nbuckets = 1
	Transforming the one-electron integrals and constructing Fock matrices
	Starting first half-transformation.
	Sorting half-transformed integrals.
	First half integral transformation complete.
	Starting second half-transformation.
	Two-electron integral transformation complete.
	(OO|OV)...
	Starting second half-transformation.
	Two-electron integral transformation complete.
	(OO|VV)...
	Starting second half-transformation.
	Two-electron integral transformation complete.
	(OV|OO)...
	Starting first half-transformation.
	Sorting half-transformed integrals.
	First half integral transformation complete.
	Starting second half-transformation.
	Two-electron integral transformation complete.
	(OV|OV)...
	Starting second half-transformation.
	Two-electron integral transformation complete.
	(OV|VV)...
	Starting second half-transformation.
	Two-electron integral transformation complete.
	(VV|OO)...
	Starting first half-transformation.
	Sorting half-transformed integrals.
	First half integral transformation complete.
	Starting second half-transformation.
	Two-electron integral transformation complete.
	(VV|OV)...
	Starting second half-transformation.
	Two-electron integral transformation complete.
	(VV|VV)...
	Starting second half-transformation.
	Two-electron integral transformation complete.
	Frozen core energy     =      0.00000000000000

	Size of irrep 0 of <ab|cd> integrals:      3.748 (MW) /     29.985 (MB)
	Total:                                     3.748 (MW) /     29.985 (MB)

	Size of irrep 0 of <ia|bc> integrals:      0.681 (MW) /      5.452 (MB)
	Total:                                     0.681 (MW) /      5.452 (MB)

	Size of irrep 0 of tijab amplitudes:       0.124 (MW) /      0.991 (MB)
	Total:                                     0.124 (MW) /      0.991 (MB)

	Nuclear Rep. energy          =     32.99362333556020
	SCF energy                   =    -77.92390850268312
	One-electron energy          =   -169.09715192810410
	Two-electron energy          =     58.17962008986062
	Reference energy             =    -77.92390850268328

*** tstop() called on Berts-MacBook-Pro.local at Wed Dec  6 22:39:11 2017
Module time:
	user time   =       0.25 seconds =       0.00 minutes
	system time =       0.37 seconds =       0.01 minutes
	total time  =          0 seconds =       0.00 minutes
Total time:
	user time   =      59.22 seconds =       0.99 minutes
	system time =       1.20 seconds =       0.02 minutes
	total time  =         60 seconds =       1.00 minutes

*** tstart() called on Berts-MacBook-Pro.local
*** at Wed Dec  6 22:39:11 2017

            **************************
            *                        *
            *        CCENERGY        *
            *                        *
            **************************

    Nuclear Rep. energy (wfn)     =   32.993623335560201
    SCF energy          (wfn)     =  -77.923908502683119
    Reference energy    (file100) =  -77.923908502683275

    Input parameters:
    -----------------
    Wave function   =     CCSD
    Reference wfn   =     RHF
    Brueckner       =     No
    Memory (Mbytes) =     8000.0
    Maxiter         =   1000000
    R_Convergence   =     1.0e-07
    E_Convergence   =     1.0e-07
    Restart         =     Yes
    DIIS            =     Yes
    AO Basis        =     NONE
    ABCD            =     NEW
    Cache Level     =     2
    Cache Type      =     LOW
    Print Level     =     1
    Num. of threads =     1
    # Amps to Print =     1000000
    Print MP2 Amps? =     No
    Analyze T2 Amps =     No
    Print Pair Ener =     No
    Local CC        =     No
    SCS-MP2         =     False
    SCSN-MP2        =     False
    SCS-CCSD        =     False

MP2 correlation energy -0.3128228877320844
                Solving CC Amplitude Equations
                ------------------------------
  Iter             Energy              RMS        T1Diag      D1Diag    New D1Diag    D2Diag
  ----     ---------------------    ---------   ----------  ----------  ----------   --------
     0        -0.312822887732084    0.000e+00    0.000000    0.000000    0.000000    0.178316
     1        -0.333951605323360    6.979e-02    0.007897    0.029046    0.029046    0.211119
     2        -0.347284510199697    4.205e-02    0.010471    0.039402    0.039402    0.256852
     3        -0.350935062480231    2.379e-02    0.013120    0.050172    0.050172    0.299518
     4        -0.351885360982393    1.150e-02    0.013667    0.052493    0.052493    0.329270
     5        -0.352026942927660    2.931e-03    0.013574    0.052013    0.052013    0.333499
     6        -0.352018634458344    8.580e-04    0.013541    0.051803    0.051803    0.333739
     7        -0.352022952166597    2.866e-04    0.013543    0.051771    0.051771    0.333859
     8        -0.352021022958026    7.578e-05    0.013546    0.051776    0.051776    0.333824
     9        -0.352021637193792    2.268e-05    0.013548    0.051781    0.051781    0.333836
    10        -0.352022429753329    6.886e-06    0.013549    0.051784    0.051784    0.333841
    11        -0.352022351438609    2.070e-06    0.013549    0.051784    0.051784    0.333840
    12        -0.352022365657134    5.698e-07    0.013549    0.051784    0.051784    0.333840
    13        -0.352022348775205    2.079e-07    0.013549    0.051784    0.051784    0.333840
    14        -0.352022354996911    6.257e-08    0.013549    0.051784    0.051784    0.333841

    Iterations converged.


    Largest TIA Amplitudes:
              7   9         0.0402654476
              7   6         0.0241035814
              7   8         0.0148962263
              7  20         0.0080055431
              6   9         0.0079392095
              7  17        -0.0078032024
              4   0         0.0071222004
              7  29         0.0058749661
              6   8         0.0051569927
              5   4         0.0047459951
              4   5         0.0043675764
              5  22         0.0040780374
              3  13         0.0039558413
              3  23         0.0037026923
              4  21        -0.0028697350
              7  24         0.0028140530
              2  26        -0.0027940893
              2  22         0.0027354788
              2  40         0.0025595298
              2   2        -0.0025533692
              4  32         0.0024220218
              6  33         0.0023818710
              5  34        -0.0023059614
              7  33        -0.0021387718
              6  17        -0.0021021786
              6   6         0.0020713635
              4  25         0.0018803758
              4  10        -0.0018539752
              3  41         0.0018272118
              4  15         0.0017747783
              5  18         0.0017320930
              6  24        -0.0016477076
              3  27        -0.0016204594
              3   1        -0.0016028940
              7  39         0.0016018011
              2   4         0.0015914264
              5  11        -0.0015763501
              3  35         0.0015382970
              3  36         0.0013189650
              6  39         0.0012939992
              3  19        -0.0011822945
              4  38         0.0011804883
              5  14        -0.0010289105
              6  20         0.0009912031
              2  30        -0.0009736979
              5  37        -0.0009318566
              3  12         0.0009280238
              5  26         0.0008499094
              2  37         0.0008330680
              2  14         0.0008082641
              2  11         0.0008065853
              3   3        -0.0006509050
              1  13        -0.0005765746
              4   7        -0.0005243652
              5   2        -0.0004874532
              0  40        -0.0004574571
              5  40         0.0004158211
              1  41        -0.0003936179
              4  28         0.0003812629
              5  30         0.0003325733
              1   1        -0.0003319331
              0  14        -0.0003046625
              0  11        -0.0003031481
              2  34        -0.0002948757
              0   2        -0.0002694852
              1  12        -0.0002448214
              3  31        -0.0002398107
              6  29        -0.0002370628
              1  35        -0.0002355781
              0  37        -0.0001873379
              0   4        -0.0001543992
              1   3        -0.0001432330
              1  27        -0.0001385893
              0  22        -0.0001215312
              2  42         0.0001185658
              1  36        -0.0001163047
              1  23        -0.0001001296
              1  43         0.0000957621
              0  42         0.0000954291
              3  43         0.0000909137
              3  16        -0.0000552170
              1  16        -0.0000426654
              0  34        -0.0000414310
              5  42         0.0000166418
              2  18        -0.0000157580
              1  19         0.0000077648
              0  18         0.0000043120
              0  30         0.0000029968
              1  31        -0.0000004240
              0  26         0.0000003238

    Largest TIjAb Amplitudes:
      7   7   0   0        -0.2740693462
      7   7   0  10        -0.0703091580
      7   7  10   0        -0.0703091580
      6   7   0   0        -0.0437649377
      7   6   0   0        -0.0437649377
      5   5  12  12        -0.0317143058
      6   6   0   0        -0.0276212394
      6   7   0  10        -0.0263179951
      7   6  10   0        -0.0263179951
      5   7  12   0        -0.0232109266
      7   5   0  12        -0.0232109266
      7   7  10  10        -0.0225378748
      4   4   5   5        -0.0224590644
      7   7   9   9        -0.0224580421
      5   5   4   4        -0.0218678224
      2   7   0  12        -0.0215404104
      7   2  12   0        -0.0215404104
      6   7  10   0        -0.0209516253
      7   6   0  10        -0.0209516253
      3   3   0   0        -0.0206088728
      6   7   0   5        -0.0202089899
      7   6   5   0        -0.0202089899
      2   7   0   3        -0.0201059496
      7   2   3   0        -0.0201059496
      5   7  12  10        -0.0197582567
      7   5  10  12        -0.0197582567
      6   6   6   6        -0.0197188604
      4   7   0   9         0.0197020448
      7   4   9   0         0.0197020448
      3   7   0   2        -0.0192871191
      7   3   2   0        -0.0192871191
      4   7   5   9        -0.0186741974
      7   4   9   5        -0.0186741974
      3   7   2   0        -0.0185725491
      7   3   0   2        -0.0185725491
      4   6   5   6        -0.0184585879
      6   4   6   5        -0.0184585879
      5   7   4   9         0.0184095909
      7   5   9   4         0.0184095909
      2   7   0   1        -0.0182348536
      7   2   1   0        -0.0182348536
      2   7  12   0        -0.0176717927
      7   2   0  12        -0.0176717927
      4   7   9   0         0.0176576151
      7   4   0   9         0.0176576151
      2   7   1   0        -0.0171723403
      7   2   0   1        -0.0171723403
      7   7   0   7         0.0166194415
      7   7   7   0         0.0166194415
      4   5   5   4         0.0165444354
      5   4   4   5         0.0165444354
      6   7   6   9        -0.0164161657
      7   6   9   6        -0.0164161657
      5   6   4   6         0.0161607230
      6   5   6   4         0.0161607230
      3   7   0  11         0.0160379567
      7   3  11   0         0.0160379567
      3   7   0   4        -0.0157488916
      7   3   4   0        -0.0157488916
      5   5   0   0        -0.0154716498
      3   7   1   9        -0.0152608517
      7   3   9   1        -0.0152608517
      6   6   3   3        -0.0150475602
      7   7   5   5        -0.0147522646
      2   2  12  12        -0.0147019588
      3   7   0  14        -0.0146612196
      7   3  14   0        -0.0146612196
      2   7   3   0        -0.0144516436
      7   2   0   3        -0.0144516436
      5   7   0   3         0.0143213617
      7   5   3   0         0.0143213617
      6   7  10  10        -0.0140720290
      7   6  10  10        -0.0140720290
      5   6  12   0        -0.0140691334
      6   5   0  12        -0.0140691334
      3   5   1   4         0.0140609043
      5   3   4   1         0.0140609043
      6   6   5   5        -0.0140035772
      4   4   3   3        -0.0139408875
      4   4   0   0        -0.0136032203
      4   4   2   2        -0.0135613682
      4   6   2   3        -0.0135373990
      6   4   3   2        -0.0135373990
      4   7   7   9        -0.0135210011
      7   4   9   7        -0.0135210011
      3   5   2  12        -0.0132141361
      5   3  12   2        -0.0132141361
      3   7   4   0        -0.0131846659
      7   3   0   4        -0.0131846659
      4   4   9   9        -0.0130611532
      3   3  12  12        -0.0129665926
      3   6   1   6        -0.0127980606
      6   3   6   1        -0.0127980606
      3   4   1   5        -0.0127026557
      4   3   5   1        -0.0127026557
      2   2   0   0        -0.0126587345
      5   5   5   5        -0.0125558342
      2   5  13  12        -0.0124813852
      5   2  12  13        -0.0124813852
      4   6   5   9         0.0124379922
      6   4   9   5         0.0124379922
      6   6   2   2        -0.0122013765
      4   6   3   2        -0.0121817522
      6   4   2   3        -0.0121817522
      3   6   0  18         0.0121763182
      6   3  18   0         0.0121763182
      2   7   0  16        -0.0121686732
      7   2  16   0        -0.0121686732
      4   4   7   7        -0.0121348067
      3   3   2   2        -0.0120827850
      7   7  11  11        -0.0120689003
      2   7  13   0        -0.0119098374
      7   2   0  13        -0.0119098374
      2   7   1  10        -0.0117909299
      7   2  10   1        -0.0117909299
      4   4   0   5         0.0117056078
      4   4   5   0         0.0117056078
      3   3   1   1        -0.0116728391
      5   7   3   0         0.0114758701
      7   5   0   3         0.0114758701
      2   7  12  10        -0.0114632291
      7   2  10  12        -0.0114632291
      3   7  13   9        -0.0114360559
      7   3   9  13        -0.0114360559
      6   7   0  15        -0.0114270796
      7   6  15   0        -0.0114270796
      2   7  13  10        -0.0114220418
      7   2  10  13        -0.0114220418
      7   7   3   3        -0.0113007306
      5   6   5   3         0.0111401096
      6   5   3   5         0.0111401096
      3   3   4   4        -0.0110685386
      5   6  12  10        -0.0110110823
      6   5  10  12        -0.0110110823
      5   5   2   2        -0.0108574688
      3   6  13   6        -0.0107976372
      6   3   6  13        -0.0107976372
      3   7  14   0        -0.0107780879
      7   3   0  14        -0.0107780879
      3   4   0   3         0.0107412358
      4   3   3   0         0.0107412358
      3   4  13   5        -0.0107362704
      4   3   5  13        -0.0107362704
      4   6   9   5         0.0106536278
      6   4   5   9         0.0106536278
      6   6  10  10        -0.0105325967
      3   5  13   4         0.0105031060
      5   3   4  13         0.0105031060
      4   7   6   0        -0.0104302278
      7   4   0   6        -0.0104302278
      4   6   6   5        -0.0104237465
      6   4   5   6        -0.0104237465
      3   3  14  14        -0.0104161984
      2   4   0  18         0.0103570133
      4   2  18   0         0.0103570133
      4   4  18  18        -0.0103361032
      6   7   5   5         0.0101850662
      7   6   5   5         0.0101850662
      3   5   4  12        -0.0101651979
      5   3  12   4        -0.0101651979
      5   6  12   7        -0.0101073782
      6   5   7  12        -0.0101073782
      4   6   7   6        -0.0100830669
      6   4   6   7        -0.0100830669
      2   5   1  12        -0.0100687460
      5   2  12   1        -0.0100687460
      4   7   9  10         0.0100473274
      7   4  10   9         0.0100473274
      6   6  18  18        -0.0100348352
      7   7  12  12        -0.0099509306
      6   7   9   9         0.0099136514
      7   6   9   9         0.0099136514
      3   5  12   2        -0.0098942049
      5   3   2  12        -0.0098942049
      4   5   9  12         0.0098917427
      5   4  12   9         0.0098917427
      3   7   2  10        -0.0097732471
      7   3  10   2        -0.0097732471
      2   7   0  13        -0.0097026000
      7   2  13   0        -0.0097026000
      6   6  14  14        -0.0096874755
      7   7   7  10         0.0096384457
      7   7  10   7         0.0096384457
      7   7   1   1        -0.0096178103
      2   7   2   9        -0.0096090176
      7   2   9   2        -0.0096090176
      4   4  14  14        -0.0095765401
      6   6   0  10        -0.0095561942
      6   6  10   0        -0.0095561942
      4   5   7   4         0.0095434557
      5   4   4   7         0.0095434557
      2   2  13  13        -0.0095272858
      4   6   5  17        -0.0094887080
      6   4  17   5        -0.0094887080
      4   4  15  15        -0.0094875101
      6   6  17  17        -0.0094563722
      4   4   6   9         0.0094265289
      4   4   9   6         0.0094265289
      5   7   0  12        -0.0094226445
      7   5  12   0        -0.0094226445
      3   7   0  26         0.0093821170
      7   3  26   0         0.0093821170
      3   4   0  19         0.0093670330
      4   3  19   0         0.0093670330
      5   5  15  15        -0.0093637613
      3   5   3   2         0.0093558295
      5   3   2   3         0.0093558295
      3   7   4  10        -0.0093484065
      7   3  10   4        -0.0093484065
      2   5   0  21        -0.0093378287
      5   2  21   0        -0.0093378287
      4   6  14   3        -0.0093272339
      6   4   3  14        -0.0093272339
      3   5   2   3         0.0093174101
      5   3   3   2         0.0093174101
      6   6  16  16        -0.0093135587
      4   4   6   6        -0.0092966711
      5   7  12   7         0.0092655968
      7   5   7  12         0.0092655968
      4   6  15  17        -0.0092631456
      6   4  17  15        -0.0092631456
      3   7   3   9        -0.0092276742
      7   3   9   3        -0.0092276742
      4   7   9   5        -0.0092022146
      7   4   5   9        -0.0092022146
      6   6   6   9         0.0091732513
      6   6   9   6         0.0091732513
      3   3   3   3        -0.0091290426
      4   4  16  16        -0.0090905535
      4   6   3  14        -0.0090856975
      6   4  14   3        -0.0090856975
      4   4   5  15        -0.0090685624
      4   4  15   5        -0.0090685624
      4   4  19  19        -0.0090406540
      3   3   2  14        -0.0089733208
      3   3  14   2        -0.0089733208
      3   5   0  17        -0.0089479225
      5   3  17   0        -0.0089479225
      5   7   0  16         0.0089294703
      7   5  16   0         0.0089294703
      2   5  12  12        -0.0089177475
      5   2  12  12        -0.0089177475
      4   6  19  18        -0.0089129470
      6   4  18  19        -0.0089129470
      6   7   5   0        -0.0088555424
      7   6   0   5        -0.0088555424
      4   5   8  12        -0.0087536877
      5   4  12   8        -0.0087536877
      2   2   5   5        -0.0087394823
      4   6  14  16        -0.0086827059
      6   4  16  14        -0.0086827059
      4   6  16  14        -0.0086456940
      6   4  14  16        -0.0086456940
      2   2  12  13        -0.0086117319
      2   2  13  12        -0.0086117319
      2   6   0  19         0.0085859008
      6   2  19   0         0.0085859008
      5   5  20  20        -0.0085769588
      3   4   4   9         0.0085751158
      4   3   9   4         0.0085751158
      6   6   5  10        -0.0085747828
      6   6  10   5        -0.0085747828
      2   2   0  10        -0.0085316624
      2   2  10   0        -0.0085316624
      4   5   2   5         0.0085108245
      5   4   5   2         0.0085108245
      2   4  13   9         0.0084483015
      4   2   9  13         0.0084483015
      2   7  10  12        -0.0084458703
      7   2  12  10        -0.0084458703
      5   5  17  17        -0.0084314699
      6   6  19  19        -0.0084311762
      3   3  13  13        -0.0083245933
      4   7   3  11        -0.0083135469
      7   4  11   3        -0.0083135469
      4   7   0  17        -0.0083109342
      7   4  17   0        -0.0083109342
      2   5  11   4         0.0083036357
      5   2   4  11         0.0083036357
      5   6  15  16         0.0082583079
      6   5  16  15         0.0082583079
      5   5  22  22        -0.0082441834
      5   5   3   3        -0.0081935509
      6   7   6   6        -0.0081929288
      7   6   6   6        -0.0081929288
      3   5   0   6        -0.0081671161
      5   3   6   0        -0.0081671161
      3   5   0  20         0.0081536593
      5   3  20   0         0.0081536593
      3   3   1  13        -0.0081247583
      3   3  13   1        -0.0081247583
      4   6   7   8        -0.0080860436
      6   4   8   7        -0.0080860436
      5   6   4   9        -0.0080624139
      6   5   9   4        -0.0080624139
      6   6  15  15        -0.0080555413
      2   2  10  10        -0.0080490852
      3   3   0  10        -0.0080061985
      3   3  10   0        -0.0080061985
      3   5  11  12        -0.0079950461
      5   3  12  11        -0.0079950461
      4   6  18  19        -0.0079743234
      6   4  19  18        -0.0079743234
      2   5   2   4         0.0079705354
      5   2   4   2         0.0079705354
      4   4  17  17        -0.0079534752
      2   7   0  23        -0.0079413183
      7   2  23   0        -0.0079413183
      4   4   5   7        -0.0078930950
      4   4   7   5        -0.0078930950
      5   5   1   1        -0.0078731862
      5   5   3  12         0.0078585705
      5   5  12   3         0.0078585705
      2   7  10   1        -0.0078535185
      7   2   1  10        -0.0078535185
      3   5   4   1         0.0078497289
      5   3   1   4         0.0078497289
      5   5   5  15        -0.0077944084
      5   5  15   5        -0.0077944084
      3   6   4   5        -0.0077665014
      6   3   5   4        -0.0077665014
      4   5  16  17         0.0077257937
      5   4  17  16         0.0077257937
      2   7  11   9        -0.0077011330
      7   2   9  11        -0.0077011330
      6   7   8   9        -0.0076949699
      7   6   9   8        -0.0076949699
      3   7   9   1        -0.0076803207
      7   3   1   9        -0.0076803207
      3   4   0  16         0.0076574984
      4   3  16   0         0.0076574984
      6   7   7   0        -0.0076330069
      7   6   0   7        -0.0076330069
      3   3   2   4        -0.0076321268
      3   3   4   2        -0.0076321268
      2   2   6   6        -0.0076057591
      6   7  21   0        -0.0075997546
      7   6   0  21        -0.0075997546
      5   5   6   6        -0.0075966263
      2   6  13  10        -0.0075706269
      6   2  10  13        -0.0075706269
      4   4   2  14        -0.0075693047
      4   4  14   2        -0.0075693047
      2   4   1   9         0.0075544198
      4   2   9   1         0.0075544198
      6   6   3  16        -0.0075484706
      6   6  16   3        -0.0075484706
      3   5   0   8         0.0075080070
      5   3   8   0         0.0075080070
      6   6   8   8        -0.0074855924
      2   3   0   9        -0.0074634986
      3   2   9   0        -0.0074634986
      3   5   3  14         0.0074547770
      5   3  14   3         0.0074547770
      4   6  17  15        -0.0074428516
      6   4  15  17        -0.0074428516
      4   7   0   6        -0.0074276809
      7   4   6   0        -0.0074276809
      3   4   1   7        -0.0074182659
      4   3   7   1        -0.0074182659
      4   5   3   6         0.0073919279
      5   4   6   3         0.0073919279
      2   6   1  10        -0.0073889607
      6   2  10   1        -0.0073889607
      5   5  14  14        -0.0073839165
      2   6   2   6        -0.0073779965
      6   2   6   2        -0.0073779965
      3   6   4  10        -0.0073727816
      6   3  10   4        -0.0073727816
      3   3  16  16        -0.0073722571
      4   4   3  16        -0.0073641789
      4   4  16   3        -0.0073641789
      3   3   9   9        -0.0073297178
      3   5  14   3         0.0073281559
      5   3   3  14         0.0073281559
      4   7   5  20         0.0072869308
      7   4  20   5         0.0072869308
      7   7   6   6        -0.0072522438
      5   7   4   6         0.0072511565
      7   5   6   4         0.0072511565
      3   5  14  12        -0.0072064962
      5   3  12  14        -0.0072064962
      6   6   2  14        -0.0072044416
      6   6  14   2        -0.0072044416
      2   2  11  11        -0.0071965673
      2   5  12  27        -0.0071920274
      5   2  27  12        -0.0071920274
      5   5  21  21        -0.0071584288
      2   6  13   5        -0.0071555619
      6   2   5  13        -0.0071555619
      4   6   0  17         0.0071502794
      6   4  17   0         0.0071502794
      3   6   1   9         0.0071109641
      6   3   9   1         0.0071109641
      4   5   5  22         0.0070831666
      5   4  22   5         0.0070831666
      4   4   0  15         0.0070631039
      4   4  15   0         0.0070631039
      5   6  15   3         0.0070546534
      6   5   3  15         0.0070546534
      2   5  12  13        -0.0070484629
      5   2  13  12        -0.0070484629
      4   6   6  10        -0.0070324361
      6   4  10   6        -0.0070324361
      5   5   2  14        -0.0070285426
      5   5  14   2        -0.0070285426
      2   4  11   7        -0.0070071933
      4   2   7  11        -0.0070071933
      7   7   1   3        -0.0070035750
      7   7   3   1        -0.0070035750
      5   6  20  18        -0.0069907217
      6   5  18  20        -0.0069907217
      4   5   6  12        -0.0069587250
      5   4  12   6        -0.0069587250
      4   6   9  10         0.0069405466
      6   4  10   9         0.0069405466
      3   3  10  10        -0.0069359342
      7   7   2   2        -0.0069306393
      3   4   4   6        -0.0069016904
      4   3   6   4        -0.0069016904
      3   3   5   5        -0.0068898341
      5   5   0   5         0.0068554921
      5   5   5   0         0.0068554921
      5   6   5  16         0.0068398924
      6   5  16   5         0.0068398924
      3   5  14  16         0.0068237739
      5   3  16  14         0.0068237739
      2   2   1  13        -0.0068144496
      2   2  13   1        -0.0068144496
      5   7   2   9         0.0068116820
      7   5   9   2         0.0068116820
      4   6   8   0        -0.0068044019
      6   4   0   8        -0.0068044019
      7   7   6   9        -0.0068042410
      7   7   9   6        -0.0068042410
      3   5   3   4         0.0067907546
      5   3   4   3         0.0067907546
      4   5  14   0        -0.0067625692
      5   4   0  14        -0.0067625692
      4   6  17   5        -0.0067544777
      6   4   5  17        -0.0067544777
      6   6   6  17        -0.0067524757
      6   6  17   6        -0.0067524757
      3   7   9   3        -0.0067453825
      7   3   3   9        -0.0067453825
      5   7   1   5        -0.0067399272
      7   5   5   1        -0.0067399272
      4   5  14  15         0.0067391723
      5   4  15  14         0.0067391723
      6   6  11  11        -0.0067040299
      6   6   7   7        -0.0067011620
      5   5  11  11        -0.0066893449
      4   5   3  17         0.0066647872
      5   4  17   3         0.0066647872
      6   7   7  10        -0.0066562322
      7   6  10   7        -0.0066562322
      3   6  15  14        -0.0066481006
      6   3  14  15        -0.0066481006
      3   5  16  14         0.0066194413
      5   3  14  16         0.0066194413
      6   6   9   9        -0.0066166381
      2   7  10   3        -0.0066137716
      7   2   3  10        -0.0066137716
      2   4  12   9         0.0066068875
      4   2   9  12         0.0066068875
      4   7   3   2         0.0066005129
      7   4   2   3         0.0066005129
      4   5  14   5         0.0065858901
      5   4   5  14         0.0065858901
      3   3  19  19        -0.0065791941
      3   6   5   2        -0.0065611213
      6   3   2   5        -0.0065611213
      4   7   6  10        -0.0065605039
      7   4  10   6        -0.0065605039
      6   6   5  15        -0.0065309472
      6   6  15   5        -0.0065309472
      4   6  17   0         0.0065250374
      6   4   0  17         0.0065250374
      4   7   0  20        -0.0065014088
      7   4  20   0        -0.0065014088
      5   7  12  15        -0.0064884316
      7   5  15  12        -0.0064884316
      5   6  17  14         0.0064520560
      6   5  14  17         0.0064520560
      2   6  11   6        -0.0064488793
      6   2   6  11        -0.0064488793
      6   6   1   1        -0.0064435396
      3   5  12  22         0.0064409324
      5   3  22  12         0.0064409324
      2   4   2   7        -0.0064319673
      4   2   7   2        -0.0064319673
      5   7  16   0         0.0064301424
      7   5   0  16         0.0064301424
      3   4   5  13        -0.0064245994
      4   3  13   5        -0.0064245994
      2   6  12  10        -0.0064238453
      6   2  10  12        -0.0064238453
      3   3  17  17        -0.0064154415
      3   7  10   2        -0.0064033970
      7   3   2  10        -0.0064033970
      3   6  18   0         0.0063980896
      6   3   0  18         0.0063980896
      2   2   1  12        -0.0063944490
      2   2  12   1        -0.0063944490
      2   4  13   6        -0.0063871004
      4   2   6  13        -0.0063871004
      4   5   0   4        -0.0063528714
      5   4   4   0        -0.0063528714
      2   2  15  15        -0.0063400426
      2   7  23   0        -0.0063298685
      7   2   0  23        -0.0063298685
      3   4  17  14        -0.0063289676
      4   3  14  17        -0.0063289676
      4   4  11  11        -0.0062789012
      2   5  27  12        -0.0062736382
      5   2  12  27        -0.0062736382
      3   6   3   6        -0.0062706620
      6   3   6   3        -0.0062706620
      2   7  10  13        -0.0062673169
      7   2  13  10        -0.0062673169
      2   4   2   5        -0.0062665356
      4   2   5   2        -0.0062665356
      3   3  18  18        -0.0062642688
      3   4   2   9         0.0062560347
      4   3   9   2         0.0062560347
      4   5  18  21         0.0062456711
      5   4  21  18         0.0062456711
      5   6   0   3        -0.0062282244
      6   5   3   0        -0.0062282244
      2   3   1   4        -0.0062247877
      3   2   4   1        -0.0062247877
      4   5   2   0        -0.0062144508
      5   4   0   2        -0.0062144508
      2   2   5  15        -0.0062019556
      2   2  15   5        -0.0062019556
      2   7  16   0        -0.0062007284
      7   2   0  16        -0.0062007284
      2   2   1   1        -0.0061909327
      5   5   0  15         0.0061812550
      5   5  15   0         0.0061812550
      3   3   3  16        -0.0061584211
      3   3  16   3        -0.0061584211
      2   3   2   3        -0.0061562116
      3   2   3   2        -0.0061562116
      7   7  18  18        -0.0061516372
      2   4  18   0         0.0061489114
      4   2   0  18         0.0061489114
      6   6   7  10        -0.0061407995
      6   6  10   7        -0.0061407995
      4   5  19  20        -0.0061304620
      5   4  20  19        -0.0061304620
      3   4   3   5        -0.0061296118
      4   3   5   3        -0.0061296118
      4   6   0   6         0.0061010585
      6   4   6   0         0.0061010585
      4   4   1   1        -0.0060907517
      2   2   9   9        -0.0060844748
      4   7  18  12         0.0060804469
      7   4  12  18         0.0060804469
      5   6  13   0        -0.0060776587
      6   5   0  13        -0.0060776587
      2   2  18  18        -0.0060760436
      3   3  15  15        -0.0060727951
      7   7   4   4        -0.0060538280
      3   4  13   7        -0.0060451486
      4   3   7  13        -0.0060451486
      4   6  15   6        -0.0060236088
      6   4   6  15        -0.0060236088
      3   4  19   0         0.0060205821
      4   3   0  19         0.0060205821
      4   7   8  10        -0.0059958014
      7   4  10   8        -0.0059958014
      4   7   9   7        -0.0059701059
      7   4   7   9        -0.0059701059
      7   7  19  19        -0.0059572888
      4   5  15  11        -0.0059512079
      5   4  11  15        -0.0059512079
      6   7   2  11        -0.0059453272
      7   6  11   2        -0.0059453272
      3   3  11  11        -0.0059379722
      4   6  11  16         0.0059116192
      6   4  16  11         0.0059116192
      7   7   0  15        -0.0059065359
      7   7  15   0        -0.0059065359
      2   6   1   5        -0.0059063569
      6   2   5   1        -0.0059063569
      5   5   4  22        -0.0059050125
      5   5  22   4        -0.0059050125
      3   6   6   1        -0.0058999575
      6   3   1   6        -0.0058999575
      6   6  13  13        -0.0058996522
      3   6   2  10        -0.0058767450
      6   3  10   2        -0.0058767450
      5   7  15  19         0.0058519240
      7   5  19  15         0.0058519240
      3   4   5   1        -0.0058501929
      4   3   1   5        -0.0058501929
      2   2  17  17        -0.0058487245
      4   4  13  13        -0.0058469055
      3   7   0  22        -0.0058354403
      7   3  22   0        -0.0058354403
      5   7   5  12         0.0058349170
      7   5  12   5         0.0058349170
      4   6  16  11         0.0058187727
      6   4  11  16         0.0058187727
      7   7   0  28        -0.0058164554
      7   7  28   0        -0.0058164554
      4   6  10   6        -0.0058125110
      6   4   6  10        -0.0058125110
      2   3  13   4        -0.0058052956
      3   2   4  13        -0.0058052956
      7   7  13  13        -0.0058029923
      3   6   6  13        -0.0057985447
      6   3  13   6        -0.0057985447
      3   3   0  21         0.0057949178
      3   3  21   0         0.0057949178
      4   7   3   4         0.0057916220
      7   4   4   3         0.0057916220
      7   7   1  12        -0.0057905854
      7   7  12   1        -0.0057905854
      5   7   5  19         0.0057837504
      7   5  19   5         0.0057837504
      3   6   5   4        -0.0057834802
      6   3   4   5        -0.0057834802
      3   4  15  16        -0.0057691825
      4   3  16  15        -0.0057691825
      5   5  13  13        -0.0057671933
      4   7  18  19         0.0057611906
      7   4  19  18         0.0057611906
      3   5   8   0         0.0057530826
      5   3   0   8         0.0057530826
      5   6  11  17        -0.0057520421
      6   5  17  11        -0.0057520421
      2   4   1   6        -0.0057336241
      4   2   6   1        -0.0057336241
      3   5  12  14        -0.0057314846
      5   3  14  12        -0.0057314846
      3   7  14  10        -0.0057188868
      7   3  10  14        -0.0057188868
      2   6   1   0        -0.0057182047
      6   2   0   1        -0.0057182047
      3   3   4  14        -0.0057085763
      3   3  14   4        -0.0057085763
      3   4   2   6        -0.0057020226
      4   3   6   2        -0.0057020226
      5   6   1   5         0.0056936098
      6   5   5   1         0.0056936098
      7   7   3  12        -0.0056907536
      7   7  12   3        -0.0056907536
      4   6   8   7        -0.0056881407
      6   4   7   8        -0.0056881407
      4   6   6   7        -0.0056856291
      6   4   7   6        -0.0056856291
      4   7  15  20         0.0056826584
      7   4  20  15         0.0056826584
      2   3   3   2        -0.0056801059
      3   2   2   3        -0.0056801059
      6   6   0   7        -0.0056775183
      6   6   7   0        -0.0056775183
      2   6   5   1        -0.0056688191
      6   2   1   5        -0.0056688191
      3   3   3  12         0.0056618120
      3   3  12   3         0.0056618120
      2   7   3  10        -0.0056575033
      7   2  10   3        -0.0056575033
      3   5  17   0        -0.0056574327
      5   3   0  17        -0.0056574327
      7   7   7   7        -0.0056563866
      4   7  17   0        -0.0056546823
      7   4   0  17        -0.0056546823
      6   7  17  20         0.0056449257
      7   6  20  17         0.0056449257
      3   7  12  20         0.0056424686
      7   3  20  12         0.0056424686
      3   6   2   5        -0.0056350200
      6   3   5   2        -0.0056350200
      2   3  18  19        -0.0056298012
      3   2  19  18        -0.0056298012
      2   6   5  13        -0.0056166423
      6   2  13   5        -0.0056166423
      2   3   2  13        -0.0056134016
      3   2  13   2        -0.0056134016
      3   4   5   3        -0.0055994218
      4   3   3   5        -0.0055994218
      6   6   6   8        -0.0055895040
      6   6   8   6        -0.0055895040
      7   7   0   5         0.0055756584
      7   7   5   0         0.0055756584
      3   4   2  24        -0.0055715523
      4   3  24   2        -0.0055715523
      5   7  10  12        -0.0055558439
      7   5  12  10        -0.0055558439
      6   7   0   7         0.0055394415
      7   6   7   0         0.0055394415
      3   3   6   6        -0.0055340985
      3   3  22  22        -0.0055246266
      6   6  12  12        -0.0055105936
      2   5   0   5         0.0055042330
      5   2   5   0         0.0055042330
      2   2  20  20        -0.0055030140
      3   3  20  20        -0.0054985390
      5   6   6   2         0.0054926706
      6   5   2   6         0.0054926706
      3   6  17  16        -0.0054803008
      6   3  16  17        -0.0054803008
      3   5   2  16         0.0054633056
      5   3  16   2         0.0054633056
      4   5   3   9        -0.0054533881
      5   4   9   3        -0.0054533881
      4   4  12  12        -0.0054437019
      2   3   6  10        -0.0054376173
      3   2  10   6        -0.0054376173
      2   3   9   0        -0.0054203725
      3   2   0   9        -0.0054203725
      5   7   9   4         0.0054168915
      7   5   4   9         0.0054168915
      5   5  27  27        -0.0054138791
      6   6  23  23        -0.0054083690
      6   7   5  10        -0.0054017446
      7   6  10   5        -0.0054017446
      5   5  16  16        -0.0053919142
      2   6  12   0        -0.0053753021
      6   2   0  12        -0.0053753021
      2   3   2   1        -0.0053729503
      3   2   1   2        -0.0053729503
      2   7  14   9        -0.0053722428
      7   2   9  14        -0.0053722428
      2   5  21   0        -0.0053655526
      5   2   0  21        -0.0053655526
      4   6   9   7         0.0053618404
      6   4   7   9         0.0053618404
      3   4   9   4         0.0053507803
      4   3   4   9         0.0053507803
      3   7   4   5         0.0053462175
      7   3   5   4         0.0053462175
      3   6   2   7        -0.0053416362
      6   3   7   2        -0.0053416362
      2   4   9   1         0.0053268792
      4   2   1   9         0.0053268792
      2   6  11   8        -0.0053267537
      6   2   8  11        -0.0053267537
      2   6  12   5        -0.0052939790
      6   2   5  12        -0.0052939790
      3   6  13   9         0.0052865233
      6   3   9  13         0.0052865233
      3   5  10  20         0.0052834135
      5   3  20  10         0.0052834135
      4   7   3  14         0.0052775064
      7   4  14   3         0.0052775064
      5   6   4   8         0.0052765726
      6   5   8   4         0.0052765726
      3   6  12  17        -0.0052760815
      6   3  17  12        -0.0052760815
      2   5   2   2         0.0052554531
      5   2   2   2         0.0052554531
      5   5   3  16        -0.0052460335
      5   5  16   3        -0.0052460335
      3   7  10  14        -0.0052419162
      7   3  14  10        -0.0052419162
      7   7   3  16        -0.0052203914
      7   7  16   3        -0.0052203914
      2   3   0  17         0.0052193827
      3   2  17   0         0.0052193827
      4   4  24  24        -0.0052175226
      3   7   9  13        -0.0052132346
      7   3  13   9        -0.0052132346
      2   3   3  14        -0.0051999791
      3   2  14   3        -0.0051999791
      6   6  24  24        -0.0051945460
      2   3  14   3        -0.0051888342
      3   2   3  14        -0.0051888342
      4   5  15  22         0.0051851633
      5   4  22  15         0.0051851633
      5   7  23   0        -0.0051846847
      7   5   0  23        -0.0051846847
      2   7  11   6        -0.0051725795
      7   2   6  11        -0.0051725795
      5   6  22   6         0.0051699711
      6   5   6  22         0.0051699711
      4   4  23  23        -0.0051657052
      5   6   3   5         0.0051614883
      6   5   5   3         0.0051614883
      2   3  13   2        -0.0051613103
      3   2   2  13        -0.0051613103
      3   3   3  13        -0.0051465200
      3   3  13   3        -0.0051465200
      4   4   8   8        -0.0051342464
      3   4  12  15        -0.0051339276
      4   3  15  12        -0.0051339276
      3   6   2  25         0.0051306280
      6   3  25   2         0.0051306280
      3   7  10  26         0.0051185540
      7   3  26  10         0.0051185540
      3   6  12  24         0.0051073729
      6   3  24  12         0.0051073729
      5   7  13   0        -0.0051072549
      7   5   0  13        -0.0051072549
      2   2   4   4        -0.0051064656
      4   4   9  17         0.0050948054
      4   4  17   9         0.0050948054
      2   2  21  21        -0.0050915459
      5   7  22  20        -0.0050914882
      7   5  20  22        -0.0050914882
      3   6  11   0        -0.0050778638
      6   3   0  11        -0.0050778638
      6   6  25  25        -0.0050562989
      7   7  20  20        -0.0050535974
      3   6  10  18         0.0050517006
      6   3  18  10         0.0050517006
      5   6  22  17         0.0050470639
      6   5  17  22         0.0050470639
      5   6  16  15         0.0050432698
      6   5  15  16         0.0050432698
      3   4  14  17        -0.0050409474
      4   3  17  14        -0.0050409474
      3   6  14  15        -0.0050392026
      6   3  15  14        -0.0050392026
      4   6   2  13        -0.0050365997
      6   4  13   2        -0.0050365997
      5   7   6  11         0.0050283181
      7   5  11   6         0.0050283181
      3   7  10   4        -0.0050145812
      7   3   4  10        -0.0050145812
      2   5   3   3         0.0050126997
      5   2   3   3         0.0050126997
      5   6  12   5        -0.0050120142
      6   5   5  12        -0.0050120142
      3   3  21  21        -0.0050082057
      3   5  16   2         0.0050073895
      5   3   2  16         0.0050073895
      2   2   2   2        -0.0050045816
      2   3  19  18        -0.0050033543
      3   2  18  19        -0.0050033543
      3   6  12   8         0.0050021481
      6   3   8  12         0.0050021481
      5   5  11  22         0.0049920608
      5   5  22  11         0.0049920608
      2   7   0  27         0.0049826512
      7   2  27   0         0.0049826512
      3   6  14   5        -0.0049823816
      6   3   5  14        -0.0049823816
      2   2   0   5         0.0049823756
      2   2   5   0         0.0049823756
      5   5   1  13        -0.0049769231
      5   5  13   1        -0.0049769231
      4   7   2   3         0.0049761948
      7   4   3   2         0.0049761948
      2   4   9  13         0.0049696080
      4   2  13   9         0.0049696080
      5   5   6  17        -0.0049687442
      5   5  17   6        -0.0049687442
      3   6   0  14         0.0049679177
      6   3  14   0         0.0049679177
      5   6   0  16        -0.0049672114
      6   5  16   0        -0.0049672114
      7   7  10  15        -0.0049655783
      7   7  15  10        -0.0049655783
      4   4  22  22        -0.0049552475
      2   6   5  12        -0.0049526890
      6   2  12   5        -0.0049526890
      6   6  22  22        -0.0049443135
      3   4   9   2         0.0049393383
      4   3   2   9         0.0049393383
      2   2  22  22        -0.0049251634
      3   6   4   7        -0.0049199882
      6   3   7   4        -0.0049199882
      3   6   3  24        -0.0049160899
      6   3  24   3        -0.0049160899
      2   5   5  15        -0.0049101067
      5   2  15   5        -0.0049101067
      6   6   4   4        -0.0049074581
      7   7   1  13        -0.0049068214
      7   7  13   1        -0.0049068214
      4   5  11  15        -0.0049029951
      5   4  15  11        -0.0049029951
      3   3  24  24        -0.0049018015
      6   7  18  11        -0.0048994104
      7   6  11  18        -0.0048994104
      4   5  17  16         0.0048837238
      5   4  16  17         0.0048837238
      2   5   4  11         0.0048750262
      5   2  11   4         0.0048750262
      2   3   5   9         0.0048743684
      3   2   9   5         0.0048743684
      2   7   6  18         0.0048720997
      7   2  18   6         0.0048720997
      6   6   3  13        -0.0048580260
      6   6  13   3        -0.0048580260
      2   5   5  21         0.0048530169
      5   2  21   5         0.0048530169
      2   6  19   0         0.0048528846
      6   2   0  19         0.0048528846
      6   7   6  20         0.0048425880
      7   6  20   6         0.0048425880
      4   5  18   5        -0.0048423585
      5   4   5  18        -0.0048423585
      3   6   5  14        -0.0048351839
      6   3  14   5        -0.0048351839
      3   4  12   7         0.0048347162
      4   3   7  12         0.0048347162
      3   5   9  21        -0.0048322238
      5   3  21   9        -0.0048322238
      4   6   2  16        -0.0048278314
      6   4  16   2        -0.0048278314
      5   7  21   3        -0.0048254031
      7   5   3  21        -0.0048254031
      6   7  14  11        -0.0048228461
      7   6  11  14        -0.0048228461
      4   4   4   4        -0.0048220495
      3   6  20  19         0.0048082001
      6   3  19  20         0.0048082001
      4   6  13   2        -0.0048060604
      6   4   2  13        -0.0048060604
      3   5   4   3         0.0048040272
      5   3   3   4         0.0048040272
      2   6  13   7        -0.0048016064
      6   2   7  13        -0.0048016064
      6   6  11  14         0.0048000849
      6   6  14  11         0.0048000849
      2   5  14   4         0.0047945464
      5   2   4  14         0.0047945464
      5   7  20  26        -0.0047749902
      7   5  26  20        -0.0047749902
      5   6   2  24         0.0047720030
      6   5  24   2         0.0047720030
      4   7   7   6        -0.0047587202
      7   4   6   7        -0.0047587202
      2   2   6  17        -0.0047568196
      2   2  17   6        -0.0047568196
      2   5   6  20         0.0047406536
      5   2  20   6         0.0047406536
      3   3  25  25        -0.0047370900
      3   6  15  11         0.0047370495
      6   3  11  15         0.0047370495
      4   6  24  25         0.0047317837
      6   4  25  24         0.0047317837
      4   7  17   5         0.0047311735
      7   4   5  17         0.0047311735
      3   7   2   7         0.0047306478
      7   3   7   2         0.0047306478
      4   7  18   1         0.0047261175
      7   4   1  18         0.0047261175
      4   4  11  14         0.0047141176
      4   4  14  11         0.0047141176
      2   7  10  23        -0.0047107195
      7   2  23  10        -0.0047107195
      2   3  14  16        -0.0047093979
      3   2  16  14        -0.0047093979
      2   4  12  17        -0.0047062836
      4   2  17  12        -0.0047062836
      3   5   0   9         0.0047050241
      5   3   9   0         0.0047050241
      6   7   3  19        -0.0047031504
      7   6  19   3        -0.0047031504
      2   6  10   1        -0.0046967854
      6   2   1  10        -0.0046967854
      2   6  10  19         0.0046819446
      6   2  19  10         0.0046819446
      3   4   6   4        -0.0046728228
      4   3   4   6        -0.0046728228
      7   7  26  26        -0.0046614138
      1   1  42  42        -0.0046423126
      1   1  43  43        -0.0046406440
      0   1  42  43        -0.0046393988
      1   0  43  42        -0.0046393988
      0   1  43  42        -0.0046393362
      1   0  42  43        -0.0046393362
      0   0  42  42        -0.0046389563
      0   0  43  43        -0.0046373646
      3   6  22   5        -0.0046357610
      6   3   5  22        -0.0046357610
      5   5  12  16         0.0046339811
      5   5  16  12         0.0046339811
      6   6   1  13        -0.0046339129
      6   6  13   1        -0.0046339129
      3   4  12  25        -0.0046281240
      4   3  25  12        -0.0046281240
      2   6   5  23         0.0046264387
      6   2  23   5         0.0046264387
      2   4  11   5        -0.0046233794
      4   2   5  11        -0.0046233794
      3   3   1   3        -0.0046220336
      3   3   3   1        -0.0046220336
      4   5  24  12        -0.0046211347
      5   4  12  24        -0.0046211347
      6   7  18  26        -0.0046091283
      7   6  26  18        -0.0046091283
      4   6   4   1        -0.0046079303
      6   4   1   4        -0.0046079303
      3   4   6   2        -0.0046039520
      4   3   2   6        -0.0046039520
      4   7   5   6        -0.0046035174
      7   4   6   5        -0.0046035174
      3   6  10   4        -0.0046025530
      6   3   4  10        -0.0046025530
      4   6  25  24         0.0046000990
      6   4  24  25         0.0046000990
      2   3  12  22        -0.0045996816
      3   2  22  12        -0.0045996816
      4   6  20   5        -0.0045949472
      6   4   5  20        -0.0045949472
      4   6   1   4        -0.0045856038
[...]
      6   2   5  43         0.0000011054
      0   1  28  24         0.0000011002
      1   0  24  28         0.0000011002
      0   6  25  43         0.0000010960
      6   0  43  25         0.0000010960
      6   7  43   1         0.0000010858
      7   6   1  43         0.0000010858
      0   0  18  18        -0.0000010787
      1   1  19  36        -0.0000010700
      1   1  36  19        -0.0000010700
      1   2  18  41         0.0000010676
      2   1  41  18         0.0000010676
      0   0  31  41        -0.0000010636
      0   0  41  31        -0.0000010636
      0   6  42   9        -0.0000010629
      6   0   9  42        -0.0000010629
      0   3   4  31         0.0000010618
      3   0  31   4         0.0000010618
      0   6  43  15         0.0000010611
      6   0  15  43         0.0000010611
      1   4  43   7        -0.0000010566
      4   1   7  43        -0.0000010566
      0   1   4  19         0.0000010495
      1   0  19   4         0.0000010495
      2   5  38  25         0.0000010271
      5   2  25  38         0.0000010271
      0   0  18  22         0.0000010233
      0   0  22  18         0.0000010233
      0   0  18  34        -0.0000010231
      0   0  34  18        -0.0000010231
      4   6  43  30         0.0000010203
      6   4  30  43         0.0000010203
      1   7  24  27         0.0000010192
      7   1  27  24         0.0000010192
      1   1  18  34        -0.0000010158
      1   1  34  18        -0.0000010158
      0   0   3  27         0.0000010115
      0   0  27   3         0.0000010115
      1   1   2  18         0.0000010035
      1   1  18   2         0.0000010035
      1   5  13  30         0.0000009999
      5   1  30  13         0.0000009999
      0   6  43  28        -0.0000009916
      6   0  28  43        -0.0000009916
      0   5  32   7        -0.0000009913
      5   0   7  32        -0.0000009913
      1   6  42  21         0.0000009857
      6   1  21  42         0.0000009857
      2   4  42  10         0.0000009681
      4   2  10  42         0.0000009681
      0   7  43  10         0.0000009624
      7   0  10  43         0.0000009624
      1   4  35   5        -0.0000009425
      4   1   5  35        -0.0000009425
      0   7  11  39         0.0000009383
      7   0  39  11         0.0000009383
      0   1  18   3         0.0000009257
      1   0   3  18         0.0000009257
      0   2  18  11         0.0000009234
      2   0  11  18         0.0000009234
      4   7  42   3        -0.0000009216
      7   4   3  42        -0.0000009216
      0   3  11  19        -0.0000009213
      3   0  19  11        -0.0000009213
      1   2   0   8        -0.0000009165
      2   1   8   0        -0.0000009165
      3   3  30  42        -0.0000009117
      3   3  42  30        -0.0000009117
      1   5  11  35        -0.0000009081
      5   1  35  11        -0.0000009081
      6   7  42   2         0.0000009070
      7   6   2  42         0.0000009070
      0   4  43  29         0.0000009052
      4   0  29  43         0.0000009052
      0   7  24   2        -0.0000009006
      7   0   2  24        -0.0000009006
      0   5  34  18         0.0000008989
      5   0  18  34         0.0000008989
      3   3  31  43         0.0000008973
      3   3  43  31         0.0000008973
      1   3  35  19        -0.0000008879
      3   1  19  35        -0.0000008879
      0   6  21   3         0.0000008840
      6   0   3  21         0.0000008840
      0   5  17   9         0.0000008806
      5   0   9  17         0.0000008806
      1   2  18   1         0.0000008725
      2   1   1  18         0.0000008725
      1   5  19  42         0.0000008713
      5   1  42  19         0.0000008713
      0   0   2  18         0.0000008694
      0   0  18   2         0.0000008694
      0   4  43   9        -0.0000008670
      4   0   9  43        -0.0000008670
      0   1   8  28        -0.0000008627
      1   0  28   8        -0.0000008627
      4   4  30  42        -0.0000008542
      4   4  42  30        -0.0000008542
      0   6   9   2         0.0000008536
      6   0   2   9         0.0000008536
      0   1  24  28         0.0000008490
      1   0  28  24         0.0000008490
      2   7  15  41        -0.0000008477
      7   2  41  15        -0.0000008477
      1   6  19  33        -0.0000008470
      6   1  33  19        -0.0000008470
      6   7  27  43         0.0000008452
      7   6  43  27         0.0000008452
      6   7   2  42         0.0000008440
      7   6  42   2         0.0000008440
      1   1  18  18        -0.0000008375
      1   7  43  39         0.0000008354
      7   1  39  43         0.0000008354
      0   0  15  25        -0.0000008330
      0   0  25  15        -0.0000008330
      0   4  42  28        -0.0000008318
      4   0  28  42        -0.0000008318
      0   7  39  22        -0.0000008283
      7   0  22  39        -0.0000008283
      4   6  42  31         0.0000008209
      6   4  31  42         0.0000008209
      0   6  42   6        -0.0000008186
      6   0   6  42        -0.0000008186
      1   6  25  42         0.0000008186
      6   1  42  25         0.0000008186
      2   3  42  19        -0.0000008181
      3   2  19  42        -0.0000008181
      0   1   0  20        -0.0000008131
      1   0  20   0        -0.0000008131
      0   4  28  34         0.0000008021
      4   0  34  28         0.0000008021
      0   1   3  18         0.0000008008
      1   0  18   3         0.0000008008
      1   5  30   1         0.0000007909
      5   1   1  30         0.0000007909
      0   2  19  35        -0.0000007853
      2   0  35  19        -0.0000007853
      0   6  30  33         0.0000007838
      6   0  33  30         0.0000007838
      2   6  24  11         0.0000007757
      6   2  11  24         0.0000007757
      0   2  10   7         0.0000007721
      2   0   7  10         0.0000007721
      1   2  19  11        -0.0000007668
      2   1  11  19        -0.0000007668
      0   1  19   4         0.0000007634
      1   0   4  19         0.0000007634
      1   5  22   1        -0.0000007595
      5   1   1  22        -0.0000007595
      3   5  43  18        -0.0000007558
      5   3  18  43        -0.0000007558
      1   7  43  24         0.0000007499
      7   1  24  43         0.0000007499
      3   5  42   3        -0.0000007442
      5   3   3  42        -0.0000007442
      3   7  42  25         0.0000007432
      7   3  25  42         0.0000007432
      1   5  28   8         0.0000007354
      5   1   8  28         0.0000007354
      0   4  18  25        -0.0000007353
      4   0  25  18        -0.0000007353
      1   4   3  38         0.0000007316
      4   1  38   3         0.0000007316
      3   3  26  42         0.0000007302
      3   3  42  26         0.0000007302
      0   4  42   7        -0.0000007286
      4   0   7  42        -0.0000007286
      1   5  11  19         0.0000007181
      5   1  19  11         0.0000007181
      0   5  43  16         0.0000007174
      5   0  16  43         0.0000007174
      0   4  43   8        -0.0000007121
      4   0   8  43        -0.0000007121
      1   7  42  28        -0.0000006842
      7   1  28  42        -0.0000006842
      0   7  41   7        -0.0000006767
      7   0   7  41        -0.0000006767
      0   6  43   7        -0.0000006732
      6   0   7  43        -0.0000006732
      1   3  26   2         0.0000006678
      3   1   2  26         0.0000006678
      1   7  24   3         0.0000006635
      7   1   3  24         0.0000006635
      5   7  42  24        -0.0000006550
      7   5  24  42        -0.0000006550
      1   5  43  30         0.0000006550
      5   1  30  43         0.0000006550
      5   6  42  24        -0.0000006544
      6   5  24  42        -0.0000006544
      1   2  41  18         0.0000006498
      2   1  18  41         0.0000006498
      2   2  31  43         0.0000006440
      2   2  43  31         0.0000006440
      1   7  18  28        -0.0000006382
      7   1  28  18        -0.0000006382
      0   7  39  34         0.0000006178
      7   0  34  39         0.0000006178
      1   3  11  30         0.0000006143
      3   1  30  11         0.0000006143
      0   2  18  34         0.0000006075
      2   0  34  18         0.0000006075
      0   3   2   3         0.0000006029
      3   0   3   2         0.0000006029
      1   3   3  35        -0.0000005955
      3   1  35   3        -0.0000005955
      1   1  19  19        -0.0000005931
      4   7  41  37         0.0000005929
      7   4  37  41         0.0000005929
      4   7  43  37        -0.0000005900
      7   4  37  43        -0.0000005900
      0   4  42   5         0.0000005797
      4   0   5  42         0.0000005797
      1   6  30   7        -0.0000005787
      6   1   7  30        -0.0000005787
      1   2   5  24        -0.0000005730
      2   1  24   5        -0.0000005730
      1   3   4  18        -0.0000005674
      3   1  18   4        -0.0000005674
      0   7  13  21         0.0000005628
      7   0  21  13         0.0000005628
      1   3  15  28         0.0000005618
      3   1  28  15         0.0000005618
      0   0  19  19        -0.0000005612
      0   4  42  10         0.0000005595
      4   0  10  42         0.0000005595
      1   2  17  21         0.0000005516
      2   1  21  17         0.0000005516
      0   5  19  43         0.0000005488
      5   0  43  19         0.0000005488
      0   3  15  24         0.0000005487
      3   0  24  15         0.0000005487
      3   5  18  43        -0.0000005469
      5   3  43  18        -0.0000005469
      0   5  35  19         0.0000005453
      5   0  19  35         0.0000005453
      0   1  16  18        -0.0000005331
      1   0  18  16        -0.0000005331
      0   6  42  29         0.0000005330
      6   0  29  42         0.0000005330
      4   5   7  42         0.0000005301
      5   4  42   7         0.0000005301
      0   6  11   9         0.0000005264
      6   0   9  11         0.0000005264
      0   2  19  36        -0.0000005017
      2   0  36  19        -0.0000005017
      1   1  31  41        -0.0000004911
      1   1  41  31        -0.0000004911
      0   3  40  19        -0.0000004756
      3   0  19  40        -0.0000004756
      4   6  26  41         0.0000004712
      6   4  41  26         0.0000004712
      1   5  16  18        -0.0000004671
      5   1  18  16        -0.0000004671
      1   6   3   8        -0.0000004659
      6   1   8   3        -0.0000004659
      1   4  30  24        -0.0000004605
      4   1  24  30        -0.0000004605
      2   2  23  31         0.0000004583
      2   2  31  23         0.0000004583
      0   6  43  21        -0.0000004570
      6   0  21  43        -0.0000004570
      0   1  18  16        -0.0000004564
      1   0  16  18        -0.0000004564
      1   5  43  37        -0.0000004487
      5   1  37  43        -0.0000004487
      1   4   2   8        -0.0000004442
      4   1   8   2        -0.0000004442
      2   3  30  43        -0.0000004265
      3   2  43  30        -0.0000004265
      1   5  31  37         0.0000004144
      5   1  37  31         0.0000004144
      0   6  31   5        -0.0000004102
      6   0   5  31        -0.0000004102
      1   5  18  43        -0.0000004022
      5   1  43  18        -0.0000004022
      0   1  31  26         0.0000003987
      1   0  26  31         0.0000003987
      0   5  18  42        -0.0000003945
      5   0  42  18        -0.0000003945
      2   6  42  20        -0.0000003925
      6   2  20  42        -0.0000003925
      1   3  13  19        -0.0000003721
      3   1  19  13        -0.0000003721
      1   7  43  33        -0.0000003649
      7   1  33  43        -0.0000003649
      0   6  19  21         0.0000003510
      6   0  21  19         0.0000003510
      1   3   2  30        -0.0000003409
      3   1  30   2        -0.0000003409
      4   5  25  42         0.0000003387
      5   4  42  25         0.0000003387
      1   2  16   2        -0.0000003360
      2   1   2  16        -0.0000003360
      2   5  43   1        -0.0000003315
      5   2   1  43        -0.0000003315
      1   5  42  19        -0.0000003249
      5   1  19  42        -0.0000003249
      3   5  31  42         0.0000003228
      5   3  42  31         0.0000003228
      0   3   4  41         0.0000003196
      3   0  41   4         0.0000003196
      1   2  18  35        -0.0000003088
      2   1  35  18        -0.0000003088
      0   4  31  20        -0.0000003050
      4   0  20  31        -0.0000003050
      0   5  30  18        -0.0000003009
      5   0  18  30        -0.0000003009
      1   6  18  38        -0.0000002979
      6   1  38  18        -0.0000002979
      1   6  42   5         0.0000002852
      6   1   5  42         0.0000002852
      1   7   8  13        -0.0000002824
      7   1  13   8        -0.0000002824
      2   5  33  17        -0.0000002819
      5   2  17  33        -0.0000002819
      1   4  42  20        -0.0000002778
      4   1  20  42        -0.0000002778
      1   5  30  43         0.0000002759
      5   1  43  30         0.0000002759
      1   2  23  14        -0.0000002686
      2   1  14  23        -0.0000002686
      0   3  27  18        -0.0000002678
      3   0  18  27        -0.0000002678
      0   6  16   7        -0.0000002626
      6   0   7  16        -0.0000002626
      3   5  42  19        -0.0000002625
      5   3  19  42        -0.0000002625
      1   5  30   3        -0.0000002603
      5   1   3  30        -0.0000002603
      0   4  30  15        -0.0000002575
      4   0  15  30        -0.0000002575
      2   7  43   7        -0.0000002439
      7   2   7  43        -0.0000002439
      1   5  43  18        -0.0000002427
      5   1  18  43        -0.0000002427
      0   6  26  29         0.0000002416
      6   0  29  26         0.0000002416
      1   6  40  28         0.0000002343
      6   1  28  40         0.0000002343
      0   4  42  21        -0.0000002340
      4   0  21  42        -0.0000002340
      0   5  43  19        -0.0000002303
      5   0  19  43        -0.0000002303
      1   5  35  37        -0.0000002282
      5   1  37  35        -0.0000002282
      1   4  29  37        -0.0000002272
      4   1  37  29        -0.0000002272
      1   6  14  21        -0.0000002216
      6   1  21  14        -0.0000002216
      1   3  26  34         0.0000002151
      3   1  34  26         0.0000002151
      0   7  43   7        -0.0000002055
      7   0   7  43        -0.0000002055
      0   6  42   8        -0.0000002041
      6   0   8  42        -0.0000002041
      1   1  18  37         0.0000002041
      1   1  37  18         0.0000002041
      2   4  32  42         0.0000002034
      4   2  42  32         0.0000002034
      1   4  19  15        -0.0000002027
      4   1  15  19        -0.0000002027
      1   7  42  25        -0.0000001934
      7   1  25  42        -0.0000001934
      0   0  16  19        -0.0000001913
      0   0  19  16        -0.0000001913
      1   5  18  16        -0.0000001798
      5   1  16  18        -0.0000001798
      1   5  19  37        -0.0000001733
      5   1  37  19        -0.0000001733
      1   1  16  19        -0.0000001732
      1   1  19  16        -0.0000001732
      1   3  16  31        -0.0000001716
      3   1  31  16        -0.0000001716
      0   1  16  30        -0.0000001713
      1   0  30  16        -0.0000001713
      1   3  18  37         0.0000001681
      3   1  37  18         0.0000001681
      0   1  28   8        -0.0000001608
      1   0   8  28        -0.0000001608
      0   2  18   2         0.0000001607
      2   0   2  18         0.0000001607
      1   2  11  31         0.0000001591
      2   1  31  11         0.0000001591
      1   6  30  25         0.0000001569
      6   1  25  30         0.0000001569
      0   2  30   2         0.0000001560
      2   0   2  30         0.0000001560
      0   5  19  16        -0.0000001473
      5   0  16  19        -0.0000001473
      3   5  40  13         0.0000001471
      5   3  13  40         0.0000001471
      0   5  42  18         0.0000001465
      5   0  18  42         0.0000001465
      1   3  19   1        -0.0000001366
      3   1   1  19        -0.0000001366
      1   1   1  31         0.0000001289
      1   1  31   1         0.0000001289
      7   7  34  42        -0.0000001288
      7   7  42  34        -0.0000001288
      1   4  21  31         0.0000001262
      4   1  31  21         0.0000001262
      0   1  26  31        -0.0000001194
      1   0  31  26        -0.0000001194
      0   0   1  31        -0.0000001192
      0   0  31   1        -0.0000001192
      1   5  30  16        -0.0000001020
      5   1  16  30        -0.0000001020
      7   7  36  43        -0.0000000974
      7   7  43  36        -0.0000000974
      2   3  43  18        -0.0000000973
      3   2  18  43        -0.0000000973
      2   5  42  37        -0.0000000901
      5   2  37  42        -0.0000000901
      0   3  18  41        -0.0000000871
      3   0  41  18        -0.0000000871
      1   3  22  18        -0.0000000847
      3   1  18  22        -0.0000000847
      1   5  40  19        -0.0000000743
      5   1  19  40        -0.0000000743
      4   7  42  27         0.0000000703
      7   4  27  42         0.0000000703
      0   4  24  31        -0.0000000634
      4   0  31  24        -0.0000000634
      1   3  10   7         0.0000000612
      3   1   7  10         0.0000000612
      1   2  18  16        -0.0000000594
      2   1  16  18        -0.0000000594
      4   5  43  20         0.0000000555
      5   4  20  43         0.0000000555
      0   0  18  37         0.0000000551
      0   0  37  18         0.0000000551
      0   2  11  18        -0.0000000493
      2   0  18  11        -0.0000000493
      0   5  30  42         0.0000000479
      5   0  42  30         0.0000000479
      1   4  43  10        -0.0000000455
      4   1  10  43        -0.0000000455
      1   1   7  10        -0.0000000366
      1   1  10   7        -0.0000000366
      0   4  43  20        -0.0000000346
      4   0  20  43        -0.0000000346
      0   2  35  19         0.0000000336
      2   0  19  35         0.0000000336
      0   3   3  11        -0.0000000299
      3   0  11   3        -0.0000000299
      2   3  19  42        -0.0000000264
      3   2  42  19        -0.0000000264
      3   5  19  42        -0.0000000257
      5   3  42  19        -0.0000000257
      3   5  19  37        -0.0000000250
      5   3  37  19        -0.0000000250
      1   3  21  32         0.0000000236
      3   1  32  21         0.0000000236
      0   2  30  37         0.0000000233
      2   0  37  30         0.0000000233
      3   7  42  38        -0.0000000153
      7   3  38  42        -0.0000000153
      0   7  33  14        -0.0000000102
      7   0  14  33        -0.0000000102

    SCF energy       (wfn)                    =  -77.923908502683119
    Reference energy (file100)                =  -77.923908502683275

    Opposite-spin MP2 correlation energy      =   -0.251221886851843
    Same-spin MP2 correlation energy          =   -0.061601000880242
    MP2 correlation energy                    =   -0.312822887732084
      * MP2 total energy                      =  -78.236731390415358

    Opposite-spin CCSD correlation energy     =   -0.297741093621791
    Same-spin CCSD correlation energy         =   -0.054281261375120
    CCSD correlation energy                   =   -0.352022354996911
      * CCSD total energy                     =  -78.275930857680180


*** tstop() called on Berts-MacBook-Pro.local at Wed Dec  6 22:41:46 2017
Module time:
	user time   =     148.97 seconds =       2.48 minutes
	system time =       5.06 seconds =       0.08 minutes
	total time  =        155 seconds =       2.58 minutes
Total time:
	user time   =     208.19 seconds =       3.47 minutes
	system time =       6.26 seconds =       0.10 minutes
	total time  =        215 seconds =       3.58 minutes

*** Psi4 exiting successfully. Buy a developer a beer!
