
    -----------------------------------------------------------------------
          Psi4: An Open-Source Ab Initio Electronic Structure Package
                               Psi4 1.1 release

                         Git: Rev {HEAD} add49b9 


    R. M. Parrish, L. A. Burns, D. G. A. Smith, A. C. Simmonett,
    A. E. DePrince III, E. G. Hohenstein, U. Bozkaya, A. Yu. Sokolov,
    R. Di Remigio, R. M. Richard, J. F. Gonthier, A. M. James,
    H. R. McAlexander, A. Kumar, M. Saitow, X. Wang, B. P. Pritchard,
    P. Verma, H. F. Schaefer III, K. Patkowski, R. A. King, E. F. Valeev,
    F. A. Evangelista, J. M. Turney, T. D. Crawford, and C. D. Sherrill,
    J. Chem. Theory Comput. in press (2017).
    (doi: 10.1021/acs.jctc.7b00174)

    -----------------------------------------------------------------------


    Psi4 started on: Wednesday, 06 December 2017 09:33PM

    Process ID:  11937
    PSIDATADIR: /anaconda3/share/psi4
    Memory:     500.0 MiB
    Threads:    1
    
  ==> Input File <==

--------------------------------------------------------------------------
"""This is a template for psi4 input format."""
import numpy
import sys

from openfermion.config import *
from openfermion.ops._interaction_tensor import (one_body_basis_change,
                                              two_body_basis_change)
from openfermion.hamiltonians import MolecularData
from numpy import array

sys.path.append('/Users/wadejong/Desktop/Quantum-Computing/OpenFermion/OpenFermion-Psi4/openfermionpsi4')
from _psi4_conversion_functions import *

# Set number of threads in PSI4
set_num_threads(8)

# Set memory that job can use in megabytes.
memory 8000 mb

# Initialize molecular data.
_description = 'ethylene_0.39270'
if _description == 'None':
    _description = None
molecule = MolecularData([['C', array([ 0.      ,  0.      ,  0.673055])], ['C', array([ 0.      ,  0.      , -0.673055])], ['H', array([ 0.      ,  0.934981,  1.246807])], ['H', array([ 0.      , -0.934981,  1.246807])], ['H', array([ 0.35780174, -0.86380981, -1.246807  ])], ['H', array([-0.35780174,  0.86380981, -1.246807  ])]],
                         'DZP',
                         1,
                         0,
                         _description,
                          filename='/Users/wadejong/Desktop/QCQCSiddiqi/8_Qubit_Simulation/data/H4-C2_DZP_singlet_ethylene_0.39270')

# Set molecular geometry and symmetry.
molecule mol {
C 0.0 0.0 0.673055
C 0.0 0.0 -0.673055
H 0.0 0.934981 1.246807
H 0.0 -0.934981 1.246807
H 0.357801738276144 -0.8638098091869354 -1.246807
H -0.357801738276144 0.8638098091869354 -1.246807
symmetry c1
}
mol.set_multiplicity(1)
mol.set_molecular_charge(0)

# Set reference and guess.
if molecule.multiplicity == 1:
    set reference rhf
    set guess sad
    set sad_frac_occ true
else:
    set reference rohf
    set guess sad
    set sad_frac_occ true

# Set global parameters of calculation.
set globals {
    basis DZP
    freeze_core false
    fail_on_maxiter true
    df_scf_guess false
    guess sad
    sad_frac_occ true
    opdm false
    tpdm false
    soscf true
    scf_type pk
    diis true
    maxiter 1e6
    num_amps_print 1e6
    r_convergence 1e-7
    d_convergence 1e-7
    e_convergence 1e-7
    ints_tolerance EQUALITY_TOLERANCE
    damping_percentage 0
}

# Run self-consistent field (SCF) calculation.
if True:
    try:

        hf_energy, hf_wavefunction = energy('scf', return_wfn=True)
        scf_wfn = hf_wavefunction
        if True:
            print('Hartree-Fock energy for {} ({} electrons) is {}.'.format(
                molecule.name, molecule.n_electrons, hf_energy))
    except:
        if True:
            print('WARNING: SCF calculation failed.')
        else:
            raise
    else:
        # Get orbitals and Fock matrix.
        molecule.hf_energy = hf_energy
        molecule.nuclear_repulsion = mol.nuclear_repulsion_energy()
        molecule.canonical_orbitals = numpy.asarray(hf_wavefunction.Ca())
        molecule.n_orbitals = molecule.canonical_orbitals.shape[0]
        molecule.n_qubits = 2 * molecule.n_orbitals
        molecule.orbital_energies = numpy.asarray(hf_wavefunction.epsilon_a())
        molecule.fock_matrix = numpy.asarray(hf_wavefunction.Fa())

        # Get integrals using MintsHelper.
        mints = MintsHelper(hf_wavefunction.basisset())
        molecule.one_body_integrals = one_body_basis_change(
            numpy.asarray(mints.ao_kinetic()), molecule.canonical_orbitals)
        molecule.one_body_integrals += one_body_basis_change(
            numpy.asarray(mints.ao_potential()), molecule.canonical_orbitals)
        two_body_integrals = numpy.asarray(mints.ao_eri())
        two_body_integrals.reshape((molecule.n_orbitals, molecule.n_orbitals,
                                    molecule.n_orbitals, molecule.n_orbitals))
        two_body_integrals = numpy.einsum('psqr', two_body_integrals)
        two_body_integrals = two_body_basis_change(
            two_body_integrals, molecule.canonical_orbitals)
        molecule.two_body_integrals = two_body_integrals
        molecule.save()


# Perform MP2 energy calculation if there are at least two electrons.
if True:
    try:
        assert molecule.n_electrons > 1
        mp2_energy = energy('mp2',ref_wfn=scf_wfn)
        if True:
            print('MP2 energy for {} ({} electrons) is {}.'.format(
                molecule.name, molecule.n_electrons, mp2_energy))
    except:
        if True:
            print('WARNING: MP2 calculation failed.')
        else:
            raise
    else:
        molecule.mp2_energy = mp2_energy
        molecule.save()


# Perform configuration interaction singles and doubles (CISD) calculation.
if True:
    set qc_module detci
    try:
        cisd_energy, cisd_wavefunction = energy('cisd', ref_wfn=scf_wfn, return_wfn=True)
        if True:
            print('CISD energy for {} ({} electrons) is {}.'.format(
                molecule.name, molecule.n_electrons, cisd_energy))
    except:
        if True:
            print('WARNING: CISD calculation failed.')
        else:
            raise
    else:
        # For the functions below, "a" and "b" refer to "up and "down" spins.
        molecule.cisd_energy = cisd_energy

        # Get 1-RDM from CISD calculation.
        """cisd_one_rdm_a = numpy.array(cisd_wavefunction.get_opdm(
            0, 0, 'A', True)).reshape(molecule.n_orbitals, molecule.n_orbitals)
        cisd_one_rdm_b = numpy.array(cisd_wavefunction.get_opdm(
            0, 0, 'B', True)).reshape(molecule.n_orbitals, molecule.n_orbitals)

        # Get 2-RDM from CISD calculation.
        cisd_two_rdm_aa = numpy.array(cisd_wavefunction.get_tpdm(
            'AA', False)).reshape(molecule.n_orbitals, molecule.n_orbitals,
                                  molecule.n_orbitals, molecule.n_orbitals)
        cisd_two_rdm_ab = numpy.array(cisd_wavefunction.get_tpdm(
            'AB', False)).reshape(molecule.n_orbitals, molecule.n_orbitals,
                                  molecule.n_orbitals, molecule.n_orbitals)
        cisd_two_rdm_bb = numpy.array(cisd_wavefunction.get_tpdm(
            'BB', False)).reshape(molecule.n_orbitals, molecule.n_orbitals,
                                  molecule.n_orbitals, molecule.n_orbitals)

        # Get overall RDMs.
        cisd_one_rdm, cisd_two_rdm = unpack_spatial_rdm(
            cisd_one_rdm_a, cisd_one_rdm_b, cisd_two_rdm_aa,
            cisd_two_rdm_ab, cisd_two_rdm_bb)

        # Store 1-RDM in molecule file, 2-RDM separately in other file.
        molecule.cisd_one_rdm = cisd_one_rdm
        molecule.cisd_two_rdm = cisd_two_rdm
        molecule.save()"""


# Perform exact diagonalization.
if False:
    set qc_module detci
    try:
        fci_energy, fci_wavefunction = energy('fci', ref_wfn=scf_wfn, return_wfn=True)
        if True:
            print('FCI energy for {} ({} electrons) is {}.'.format(
                molecule.name, molecule.n_electrons, fci_energy))
    except:
        if True:
            print('WARNING: FCI calculation failed.')
        else:
            raise
    else:
        # For the functions below, "a" and "b" refer to "up and "down" spins.
        molecule.fci_energy = fci_energy

        # Get 1-RDM from FCI calculation.
        """fci_one_rdm_a = numpy.array(fci_wavefunction.get_opdm(
            0, 0, 'A', True)).reshape(molecule.n_orbitals, molecule.n_orbitals)
        fci_one_rdm_b = numpy.array(fci_wavefunction.get_opdm(
            0, 0, 'B', True)).reshape(molecule.n_orbitals, molecule.n_orbitals)

        # Get 2-RDM from FCI calculation.
        fci_two_rdm_aa = numpy.array(fci_wavefunction.get_tpdm(
            'AA', False)).reshape(molecule.n_orbitals, molecule.n_orbitals,
                                  molecule.n_orbitals, molecule.n_orbitals)
        fci_two_rdm_ab = numpy.array(fci_wavefunction.get_tpdm(
            'AB', False)).reshape(molecule.n_orbitals, molecule.n_orbitals,
                                  molecule.n_orbitals, molecule.n_orbitals)
        fci_two_rdm_bb = numpy.array(fci_wavefunction.get_tpdm(
            'BB', False)).reshape(molecule.n_orbitals, molecule.n_orbitals,
                                  molecule.n_orbitals, molecule.n_orbitals)

        # Get overall RDMs.
        fci_one_rdm, fci_two_rdm = unpack_spatial_rdm(
            fci_one_rdm_a, fci_one_rdm_b,
            fci_two_rdm_aa, fci_two_rdm_ab, fci_two_rdm_bb)

        # Store 1-RDM in molecule file, 2-RDM separately in other file.
        molecule.fci_one_rdm = fci_one_rdm
        molecule.fci_two_rdm = fci_two_rdm
        molecule.save()"""


# Perform coupled cluster singles and doubles (CCSD) calculation.
if True:
    set qc_module ccenergy
    try:
        ccsd_energy = energy('ccsd',ref_wfn=scf_wfn)
        if True:
            print('CCSD energy for {} ({} electrons) is {}.'.format(
                molecule.name, molecule.n_electrons, ccsd_energy))
    except:
        if True:
            print('WARNING: CCSD calculation failed.')
        else:
            raise
    else:
        molecule.ccsd_energy = ccsd_energy

        # Merge CC amplitudes into molecule by parsing
        psi_filename = outfile_name()
        ccsd_amplitudes = parse_psi4_ccsd_amplitudes(
            2 * molecule.n_orbitals,
            molecule.get_n_alpha_electrons(),
            molecule.get_n_beta_electrons(),
            psi_filename)
        molecule.ccsd_amplitudes = ccsd_amplitudes
        molecule.save()
--------------------------------------------------------------------------
  Python driver attempted to set threads to 8.
  Psi4 was compiled without OpenMP, setting threads to 1.

  Memory set to   7.451 GiB by Python driver.

*** tstart() called on Berts-MacBook-Pro.local
*** at Wed Dec  6 21:33:11 2017

   => Loading Basis Set <=

    Name: DZP
    Role: ORBITAL
    Keyword: BASIS
    atoms 1-2 entry C          line    73 file /anaconda3/share/psi4/basis/dzp.gbs 
    atoms 3-6 entry H          line    16 file /anaconda3/share/psi4/basis/dzp.gbs 


         ---------------------------------------------------------
                                   SCF
            by Justin Turney, Rob Parrish, and Andy Simmonett
                              RHF Reference
                        1 Threads,   7629 MiB Core
         ---------------------------------------------------------

  ==> Geometry <==

    Molecular point group: c1
    Full point group: D2

    Geometry (in Angstrom), charge = 0, multiplicity = 1:

       Center              X                  Y                   Z               Mass       
    ------------   -----------------  -----------------  -----------------  -----------------
           C          0.000000000000     0.000000000000     0.673055000000    12.000000000000
           C          0.000000000000     0.000000000000    -0.673055000000    12.000000000000
           H          0.182405744369     0.917015602257     1.246807000000     1.007825032070
           H         -0.182405744369    -0.917015602257     1.246807000000     1.007825032070
           H          0.182405744369    -0.917015602257    -1.246807000000     1.007825032070
           H         -0.182405744369     0.917015602257    -1.246807000000     1.007825032070

  Running in c1 symmetry.

  Rotational constants: A =      4.78350  B =      0.97595  C =      0.82117 [cm^-1]
  Rotational constants: A = 143405.72603  B =  29258.37449  C =  24618.01093 [MHz]
  Nuclear repulsion =   33.004804352655725

  Charge       = 0
  Multiplicity = 1
  Electrons    = 16
  Nalpha       = 8
  Nbeta        = 8

  ==> Algorithm <==

  SCF Algorithm Type is PK.
  DIIS enabled.
  MOM disabled.
  Fractional occupation disabled.
  Guess Type is SAD.
  Energy threshold   = 1.00e-07
  Density threshold  = 1.00e-07
  Integral threshold = 0.00e+00

  ==> Primary Basis <==

  Basis Set: DZP
    Blend: DZP
    Number of shells: 26
    Number of basis function: 52
    Number of Cartesian functions: 52
    Spherical Harmonics?: false
    Max angular momentum: 2

  ==> Pre-Iterations <==

   -------------------------------------------------------
    Irrep   Nso     Nmo     Nalpha   Nbeta   Ndocc  Nsocc
   -------------------------------------------------------
     A         52      52       0       0       0       0
   -------------------------------------------------------
    Total      52      52       8       8       8       0
   -------------------------------------------------------

  ==> Integral Setup <==

  Using in-core PK algorithm.
   Calculation information:
      Number of atoms:                   6
      Number of AO shells:              26
      Number of primitives:             50
      Number of atomic orbitals:        52
      Number of basis functions:        52

      Integral cutoff                 1.00e-12
      Number of threads:                 1

  Performing in-core PK
  Using 1900262 doubles for integral storage.
  We computed 61760 shell quartets total.
  Whereas there are 61776 unique shell quartets.
  ==> DiskJK: Disk-Based J/K Matrices <==

    J tasked:                  Yes
    K tasked:                  Yes
    wK tasked:                  No
    Memory (MB):              5722
    Schwarz Cutoff:          1E-12

    OpenMP threads:              1
  Minimum eigenvalue in the overlap matrix is 5.3128747847E-03.
  Using Symmetric Orthogonalization.

  SCF Guess: Superposition of Atomic Densities via on-the-fly atomic UHF.

  ==> Iterations <==

                        Total Energy        Delta E     RMS |[F,P]|

   @RHF iter   0:   -69.16285335299685   -6.91629e+01   1.01504e-01 
   @RHF iter   1:   -74.33816355179557   -5.17531e+00   3.99367e-02 
   @RHF iter   2:   -77.21134387467930   -2.87318e+00   2.38432e-02 DIIS/DAMP
   @RHF iter   3:   -78.02668386317926   -8.15340e-01   2.35001e-03 DIIS/DAMP
   @RHF iter   4:   -78.03738582264556   -1.07020e-02   3.90175e-04 SOSCF, nmicro = 4/DAMP
   @RHF iter   5:   -78.03786915853992   -4.83336e-04   1.94396e-06 SOSCF, nmicro = 4/DAMP
   @RHF iter   6:   -78.03786916696637   -8.42645e-09   3.34467e-09 SOSCF, conv/DAMP

  ==> Post-Iterations <==

    Orbital Energies (a.u.)
    -----------------------

    Doubly Occupied:                                                      

       1A    -11.245183     2A    -11.243629     3A     -1.027194  
       4A     -0.788093     5A     -0.633386     6A     -0.582328  
       7A     -0.512899     8A     -0.360104  

    Virtual:                                                              

       9A      0.138211    10A      0.257561    11A      0.292109  
      12A      0.364490    13A      0.383606    14A      0.412931  
      15A      0.444936    16A      0.473200    17A      0.484879  
      18A      0.609490    19A      0.636634    20A      0.667536  
      21A      0.824331    22A      1.024973    23A      1.202955  
      24A      1.204233    25A      1.318212    26A      1.533879  
      27A      1.547882    28A      1.600168    29A      1.648266  
      30A      1.937955    31A      2.065048    32A      2.067273  
      33A      2.088910    34A      2.144382    35A      2.201929  
      36A      2.433625    37A      2.479847    38A      2.503704  
      39A      2.646909    40A      2.780856    41A      2.791303  
      42A      2.927967    43A      2.945167    44A      3.198030  
      45A      3.350710    46A      3.503407    47A      3.585301  
      48A      3.886447    49A      4.216004    50A      4.542043  
      51A     27.626830    52A     27.662123  

    Final Occupation by Irrep:
              A 
    DOCC [     8 ]

  Energy converged.

  @RHF Final Energy:   -78.03786916696637

   => Energetics <=

    Nuclear Repulsion Energy =             33.0048043526557251
    One-Electron Energy =                -169.2997170543811762
    Two-Electron Energy =                  58.2570435347590774
    DFT Exchange-Correlation Energy =       0.0000000000000000
    Empirical Dispersion Energy =           0.0000000000000000
    PCM Polarization Energy =               0.0000000000000000
    EFP Energy =                            0.0000000000000000
    Total Energy =                        -78.0378691669663738



Properties will be evaluated at   0.000000,   0.000000,   0.000000 Bohr

Properties computed using the SCF density matrix

  Nuclear Dipole Moment: (a.u.)
     X:     0.0000      Y:     0.0000      Z:     0.0000

  Electronic Dipole Moment: (a.u.)
     X:     0.0000      Y:     0.0000      Z:     0.0000

  Dipole Moment: (a.u.)
     X:     0.0000      Y:     0.0000      Z:     0.0000     Total:     0.0000

  Dipole Moment: (Debye)
     X:     0.0000      Y:     0.0000      Z:     0.0000     Total:     0.0000


*** tstop() called on Berts-MacBook-Pro.local at Wed Dec  6 21:33:11 2017
Module time:
	user time   =       0.39 seconds =       0.01 minutes
	system time =       0.05 seconds =       0.00 minutes
	total time  =          0 seconds =       0.00 minutes
Total time:
	user time   =       0.39 seconds =       0.01 minutes
	system time =       0.05 seconds =       0.00 minutes
	total time  =          0 seconds =       0.00 minutes

*** tstart() called on Berts-MacBook-Pro.local
*** at Wed Dec  6 21:33:16 2017


  //>>>>>>>>>>>>>>>>>>>>>>>>>>>>>>>>>>>//
  //               DFMP2               //
  //<<<<<<<<<<<<<<<<<<<<<<<<<<<<<<<<<<<//

   => Loading Basis Set <=

    Name: (DZP AUX)
    Role: RIFIT
    Keyword: DF_BASIS_MP2
    atoms 1-2 entry C          line   269 file /anaconda3/share/psi4/basis/def2-qzvpp-ri.gbs 
    atoms 3-6 entry H          line    23 file /anaconda3/share/psi4/basis/def2-qzvpp-ri.gbs 

	 --------------------------------------------------------
	                          DF-MP2                         
	      2nd-Order Density-Fitted Moller-Plesset Theory     
	              RMP2 Wavefunction,   1 Threads             
	                                                         
	        Rob Parrish, Justin Turney, Andy Simmonett,      
	           Ed Hohenstein, and C. David Sherrill          
	 --------------------------------------------------------

   => Auxiliary Basis Set <=

  Basis Set: (DZP AUX)
    Blend: DEF2-QZVPP-RI
    Number of shells: 130
    Number of basis function: 506
    Number of Cartesian functions: 666
    Spherical Harmonics?: true
    Max angular momentum: 5

	 --------------------------------------------------------
	                 NBF =    52, NAUX =   506
	 --------------------------------------------------------
	   CLASS    FOCC     OCC    AOCC    AVIR     VIR    FVIR
	   PAIRS       0       8       8      44      44       0
	 --------------------------------------------------------

	-----------------------------------------------------------
	 ==================> DF-MP2 Energies <==================== 
	-----------------------------------------------------------
	 Reference Energy          =     -78.0378691669663738 [Eh]
	 Singles Energy            =      -0.0000000000000000 [Eh]
	 Same-Spin Energy          =      -0.0603813119334056 [Eh]
	 Opposite-Spin Energy      =      -0.2441353344954330 [Eh]
	 Correlation Energy        =      -0.3045166464288386 [Eh]
	 Total Energy              =     -78.3423858133952109 [Eh]
	-----------------------------------------------------------
	 ================> DF-SCS-MP2 Energies <================== 
	-----------------------------------------------------------
	 SCS Same-Spin Scale       =       0.3333333333333333 [-]
	 SCS Opposite-Spin Scale   =       1.2000000000000000 [-]
	 SCS Same-Spin Energy      =      -0.0201271039778019 [Eh]
	 SCS Opposite-Spin Energy  =      -0.2929624013945196 [Eh]
	 SCS Correlation Energy    =      -0.3130895053723215 [Eh]
	 SCS Total Energy          =     -78.3509586723386917 [Eh]
	-----------------------------------------------------------


*** tstop() called on Berts-MacBook-Pro.local at Wed Dec  6 21:33:16 2017
Module time:
	user time   =       0.27 seconds =       0.00 minutes
	system time =       0.05 seconds =       0.00 minutes
	total time  =          0 seconds =       0.00 minutes
Total time:
	user time   =       4.62 seconds =       0.08 minutes
	system time =       0.24 seconds =       0.00 minutes
	total time  =          5 seconds =       0.08 minutes
 MINTS: Wrapper to libmints.
   by Justin Turney

   Calculation information:
      Number of threads:                 1
      Number of atoms:                   6
      Number of AO shells:              26
      Number of SO shells:              26
      Number of primitives:             50
      Number of atomic orbitals:        52
      Number of basis functions:        52

      Number of irreps:                  1
      Integral cutoff                 0.00e+00
      Number of functions per irrep: [  52 ]

 OEINTS: Overlap, kinetic, potential, dipole, and quadrupole integrals
         stored in file 35.

      Computing two-electron integrals...done
      Computed 840972 non-zero two-electron integrals.
        Stored in file 33.


         ---------------------------------------------------------
                          Configuration Interaction
                            (a 'D E T C I' module)

                 C. David Sherrill, Daniel G. A. Smith, and
                              Matt L. Leininger
         ---------------------------------------------------------


   ==> Parameters <==

    EX LEVEL       =        2      H0 BLOCKSIZE  =     1000
    VAL EX LEVEL   =        0      H0 GUESS SIZE =     1000
    H0COUPLINGSIZE =        0      H0 COUPLING   =       NO
    MAXITER        =       24      NUM PRINT     =       20
    NUM ROOTS      =        1      ICORE         =        1
    PRINT LVL      =        1      FCI           =       NO
    R CONV         = 1.00e-07      MIXED         =      YES
    E CONV         = 1.00e-07      MIXED4        =      YES
    R4S            =       NO      REPL OTF      =       NO
    DIAG METHOD    =      SEM      FOLLOW ROOT   =        0
    PRECONDITIONER = DAVIDSON      UPDATE        = DAVIDSON
    S              =   0.0000      Ms0           =      YES
    GUESS VECTOR   =  H0BLOCK      OPENTYPE      =     NONE
    COLLAPSE SIZE  =        1      HD AVG        = EVANGELISTI
    MAX NUM VECS   =       25      REF SYM       =     AUTO
    IOPEN        =       NO

    EX ALLOW       =  1  1 
    STATE AVERAGE  =  0(1.00) 

   ==> CI Orbital and Space information <==

    RAS1 LVL      =        7      A RAS3 MAX    =        2
    RAS1 MIN      =       14      B RAS3 MAX    =        2
    A RAS1 LVL    =        7      RAS4 LVL      =       52
    A RAS1 MIN    =        6      A RAS4 MAX    =        0
    A RAS1 MAX    =        8      B RAS4 MAX    =        0
    B RAS1 LVL    =        7      RAS4 MAX      =        0
    B RAS1 MIN    =        6      A RAS34 MAX   =        2
    B RAS1 MAX    =        8      B RAS34 MAX   =        2
    RAS3 LVL      =        8      RAS34 MAX     =        2
    RAS3 MAX      =        2
   ------------------------------------
               Space    Total     A
   ------------------------------------
                 Nso       52    52
                 Nmo       52    52
               Ndocc        8     8
               Nsocc        0     0
   ------------------------------------
              CI Spaces
   ------------------------------------
        Dropped DOCC        0     0
                RAS1        8     8
                RAS2        0     0
                RAS3       44    44
                RAS4        0     0
      Active (total)       52    52
        Dropped UOCC        0     0
   ------------------------------------

   ==> Setting up CI strings <==

    There are 26841 alpha and 26841 beta strings
    The CI space requires 177585 (1.78E+05) determinants and 6 blocks

   ==> Transforming CI integrals <==

	Presorting SO-basis two-electron integrals.
	Sorting File: SO Ints (nn|nn) nbuckets = 1
	Transforming the one-electron integrals and constructing Fock matrices
	Starting first half-transformation.
	Sorting half-transformed integrals.
	First half integral transformation complete.
	Starting second half-transformation.
	Two-electron integral transformation complete.

   ==> Starting CI iterations <==

    H0 Block Eigenvalue = -78.07263026

    Simultaneous Expansion Method (Block Davidson Method)
    Using 1 initial trial vectors

     Iter   Root       Total Energy       Delta E      C RMS

   @CI  0:     0    -78.072630258231   -1.1108E+02   1.5397E+00  
   @CI  1:     0    -78.335355807055   -2.6273E-01   1.5317E-01  
   @CI  2:     0    -78.345176157943   -9.8204E-03   4.4865E-02  
   @CI  3:     0    -78.345844730497   -6.6857E-04   9.9641E-03  
   @CI  4:     0    -78.345881474415   -3.6744E-05   2.7638E-03  
   @CI  5:     0    -78.345883598632   -2.1242E-06   6.2757E-04  
   @CI  6:     0    -78.345883728376   -1.2974E-07   1.7398E-04  
   @CI  7:     0    -78.345883737379   -9.0030E-09   4.5708E-05  
   @CI  8:     0    -78.345883738054   -6.7465E-10   1.2352E-05  
   @CI  9:     0    -78.345883738101   -4.7621E-11   3.1942E-06  
   @CI 10:     0    -78.345883738104   -2.5722E-12   6.1960E-07  
    Warning: Norm of correction (root 0) is < 1.0E-13
   @CI 11:     0    -78.345883738104   -1.1369E-13   1.4330E-07  
    Warning: Norm of correction (root 0) is < 1.0E-13
   @CI 12:     0    -78.345883738104   -4.2633E-14   2.9837E-08 c

   ==> Energetics <==

    SCF energy =            0.000000000000000
    Total CI energy =     -78.345883738104192

   ==> CISD root 0 information <==

    CISD Root 0 energy =   -78.345883738104192

   The 20 most important determinants:

    *   1    0.951021  (    0,    0)  1AX 2AX 3AX 4AX 5AX 6AX 7AX 8AX 
    *   2   -0.091503  (    1,    1)  1AX 2AX 3AX 4AX 5AX 6AX 7AX 9AX 
    *   3   -0.041591  (    1,   73)  1AX 2AX 3AX 4AX 5AX 6AX 7AX 9AA 18AB 
    *   4   -0.041591  (   73,    1)  1AX 2AX 3AX 4AX 5AX 6AX 7AX 9AB 18AA 
    *   5   -0.027027  (   99,   99)  1AX 2AX 3AX 4AX 5AX 7AX 8AX 21AX 
    *   6   -0.026757  (   73,   73)  1AX 2AX 3AX 4AX 5AX 6AX 7AX 18AX 
    *   7   -0.024716  (    1,   99)  1AX 2AX 3AX 4AX 5AX 6AA 7AX 8AB 9AA 21AB 
    *   8   -0.024716  (   99,    1)  1AX 2AX 3AX 4AX 5AX 6AB 7AX 8AA 9AB 21AA 
    *   9   -0.021635  (   65,   65)  1AX 2AX 3AX 4AX 5AX 6AX 7AX 17AX 
    *  10   -0.021572  (    0, 2202)  1AX 2AX 3AX 4AX 5AX 6AA 7AX 8AA 9AB 21AB 
    *  11   -0.021572  ( 2202,    0)  1AX 2AX 3AX 4AX 5AX 6AB 7AX 8AB 9AA 21AA 
    *  12   -0.020557  (   28,   28)  1AX 2AX 3AX 4AX 6AX 7AX 8AX 12AX 
    *  13   -0.020168  (   26,   26)  1AX 2AX 3AX 4AX 5AX 6AX 8AX 12AX 
    *  14   -0.019026  (   73,   99)  1AX 2AX 3AX 4AX 5AX 6AA 7AX 8AB 18AA 21AB 
    *  15   -0.019026  (   99,   73)  1AX 2AX 3AX 4AX 5AX 6AB 7AX 8AA 18AB 21AA 
    *  16   -0.018337  (    5,    5)  1AX 2AX 3AX 5AX 6AX 7AX 8AX 9AX 
    *  17   -0.017983  (   43,   43)  1AX 2AX 3AX 4AX 5AX 7AX 8AX 14AX 
    *  18    0.017623  (    1,    2)  1AX 2AX 3AX 4AX 5AX 6AX 7AA 8AB 9AX 
    *  19    0.017623  (    2,    1)  1AX 2AX 3AX 4AX 5AX 6AX 7AB 8AA 9AX 
    *  20    0.017256  (    0,   65)  1AX 2AX 3AX 4AX 5AX 6AX 7AX 8AA 17AB 

		 "A good bug is a dead bug" 

			 - Starship Troopers

		 "I didn't write FORTRAN.  That's the problem."

			 - Edward Valeev
 MINTS: Wrapper to libmints.
   by Justin Turney

   Calculation information:
      Number of threads:                 1
      Number of atoms:                   6
      Number of AO shells:              26
      Number of SO shells:              26
      Number of primitives:             50
      Number of atomic orbitals:        52
      Number of basis functions:        52

      Number of irreps:                  1
      Integral cutoff                 0.00e+00
      Number of functions per irrep: [  52 ]

 OEINTS: Overlap, kinetic, potential, dipole, and quadrupole integrals
         stored in file 35.

      Computing two-electron integrals...done
      Computed 840972 non-zero two-electron integrals.
        Stored in file 33.


*** tstart() called on Berts-MacBook-Pro.local
*** at Wed Dec  6 21:34:09 2017


	Wfn Parameters:
	--------------------
	Wavefunction         = CCSD
	Number of irreps     = 1
	Number of MOs        = 52
	Number of active MOs = 52
	AO-Basis             = NONE
	Semicanonical        = false
	Reference            = RHF
	Print Level          = 1

	IRREP	# MOs	# FZDC	# DOCC	# SOCC	# VIRT	# FZVR
	-----	-----	------	------	------	------	------
	 A	   52	    0	    8	    0	    44	    0
	Transforming integrals...
	IWL integrals will be deleted.
	(OO|OO)...
	Presorting SO-basis two-electron integrals.
	Sorting File: SO Ints (nn|nn) nbuckets = 1
	Transforming the one-electron integrals and constructing Fock matrices
	Starting first half-transformation.
	Sorting half-transformed integrals.
	First half integral transformation complete.
	Starting second half-transformation.
	Two-electron integral transformation complete.
	(OO|OV)...
	Starting second half-transformation.
	Two-electron integral transformation complete.
	(OO|VV)...
	Starting second half-transformation.
	Two-electron integral transformation complete.
	(OV|OO)...
	Starting first half-transformation.
	Sorting half-transformed integrals.
	First half integral transformation complete.
	Starting second half-transformation.
	Two-electron integral transformation complete.
	(OV|OV)...
	Starting second half-transformation.
	Two-electron integral transformation complete.
	(OV|VV)...
	Starting second half-transformation.
	Two-electron integral transformation complete.
	(VV|OO)...
	Starting first half-transformation.
	Sorting half-transformed integrals.
	First half integral transformation complete.
	Starting second half-transformation.
	Two-electron integral transformation complete.
	(VV|OV)...
	Starting second half-transformation.
	Two-electron integral transformation complete.
	(VV|VV)...
	Starting second half-transformation.
	Two-electron integral transformation complete.
	Frozen core energy     =      0.00000000000000

	Size of irrep 0 of <ab|cd> integrals:      3.748 (MW) /     29.985 (MB)
	Total:                                     3.748 (MW) /     29.985 (MB)

	Size of irrep 0 of <ia|bc> integrals:      0.681 (MW) /      5.452 (MB)
	Total:                                     0.681 (MW) /      5.452 (MB)

	Size of irrep 0 of tijab amplitudes:       0.124 (MW) /      0.991 (MB)
	Total:                                     0.124 (MW) /      0.991 (MB)

	Nuclear Rep. energy          =     33.00480435265573
	SCF energy                   =    -78.03786916696637
	One-electron energy          =   -169.29971716536733
	Two-electron energy          =     58.25704364574528
	Reference energy             =    -78.03786916696632

*** tstop() called on Berts-MacBook-Pro.local at Wed Dec  6 21:34:10 2017
Module time:
	user time   =       0.29 seconds =       0.00 minutes
	system time =       0.38 seconds =       0.01 minutes
	total time  =          1 seconds =       0.02 minutes
Total time:
	user time   =      57.13 seconds =       0.95 minutes
	system time =       1.22 seconds =       0.02 minutes
	total time  =         59 seconds =       0.98 minutes

*** tstart() called on Berts-MacBook-Pro.local
*** at Wed Dec  6 21:34:10 2017

            **************************
            *                        *
            *        CCENERGY        *
            *                        *
            **************************

    Nuclear Rep. energy (wfn)     =   33.004804352655732
    SCF energy          (wfn)     =  -78.037869166966374
    Reference energy    (file100) =  -78.037869166966317

    Input parameters:
    -----------------
    Wave function   =     CCSD
    Reference wfn   =     RHF
    Brueckner       =     No
    Memory (Mbytes) =     8000.0
    Maxiter         =   1000000
    R_Convergence   =     1.0e-07
    E_Convergence   =     1.0e-07
    Restart         =     Yes
    DIIS            =     Yes
    AO Basis        =     NONE
    ABCD            =     NEW
    Cache Level     =     2
    Cache Type      =     LOW
    Print Level     =     1
    Num. of threads =     1
    # Amps to Print =     1000000
    Print MP2 Amps? =     No
    Analyze T2 Amps =     No
    Print Pair Ener =     No
    Local CC        =     No
    SCS-MP2         =     False
    SCSN-MP2        =     False
    SCS-CCSD        =     False

MP2 correlation energy -0.3045242884463158
                Solving CC Amplitude Equations
                ------------------------------
  Iter             Energy              RMS        T1Diag      D1Diag    New D1Diag    D2Diag
  ----     ---------------------    ---------   ----------  ----------  ----------   --------
     0        -0.304524288446316    0.000e+00    0.000000    0.000000    0.000000    0.158114
     1        -0.324508126894990    5.352e-02    0.006675    0.023529    0.023529    0.174193
     2        -0.334446993482414    2.235e-02    0.008232    0.029837    0.029837    0.192481
     3        -0.335662372980100    7.748e-03    0.009312    0.034185    0.034185    0.200082
     4        -0.335724723081343    2.582e-03    0.009463    0.034966    0.034966    0.203240
     5        -0.335744608506571    5.278e-04    0.009469    0.035015    0.035015    0.203685
     6        -0.335743818993079    1.348e-04    0.009464    0.035005    0.035005    0.203712
     7        -0.335743583070486    3.973e-05    0.009462    0.034999    0.034999    0.203718
     8        -0.335743487557106    1.324e-05    0.009462    0.034998    0.034998    0.203718
     9        -0.335743342588260    3.691e-06    0.009462    0.034997    0.034997    0.203717
    10        -0.335743440669511    9.923e-07    0.009462    0.034997    0.034997    0.203717
    11        -0.335743447132771    2.632e-07    0.009462    0.034997    0.034997    0.203717
    12        -0.335743454503924    6.674e-08    0.009462    0.034997    0.034997    0.203717

    Iterations converged.


    Largest TIA Amplitudes:
              7   8         0.0289966567
              7   7         0.0114787989
              7  19         0.0103001595
              7  10         0.0096918045
              4   3         0.0058080083
              5  21         0.0045927659
              3  13         0.0044376414
              7  28         0.0038972953
              6  10         0.0037183814
              5   5         0.0035891810
              6  34         0.0033526045
              6   8         0.0032473394
              4  22        -0.0032165889
              6   7         0.0030144275
              4  14         0.0029063740
              2  24         0.0028535514
              7  17         0.0028313122
              2   2        -0.0027529396
              3  25         0.0027441079
              2  40         0.0026502607
              5  33        -0.0021484284
              3  41         0.0018488311
              2  21         0.0018474141
              4  37         0.0017877932
              3  29        -0.0017746620
              6  23        -0.0016957755
              3  30        -0.0015783695
              3  35         0.0015111823
              2   5         0.0014854765
              2  11         0.0014695624
              5   2        -0.0013890732
              6  19         0.0013707120
              4  27         0.0013474176
              5  36        -0.0012547482
              3  38         0.0012517253
              5  15        -0.0012511356
              5  20         0.0012359096
              4   0        -0.0011816795
              2  36         0.0010968847
              7  34        -0.0010824367
              6  17         0.0010674894
              3  12         0.0008729281
              4  32         0.0008524300
              3   4         0.0008327612
              3   1        -0.0008265097
              4   9        -0.0008248285
              7  23         0.0007696180
              5  11        -0.0007626681
              2  15         0.0007553292
              3  16         0.0006927630
              2  31        -0.0006654945
              6  39         0.0005826951
              1  13        -0.0005526631
              5  40         0.0005137211
              4   6         0.0004851452
              0  40        -0.0004604569
              2  33        -0.0004405219
              7  39         0.0004161171
              1  41        -0.0003694336
              0  11        -0.0003345112
              1   1        -0.0003283363
              0  15        -0.0002916960
              1  12        -0.0002697714
              6  28         0.0002684922
              0   2        -0.0002422625
              1  35        -0.0002220255
              5  24         0.0001993059
              1   4        -0.0001825903
              1  38        -0.0001697667
              0  36        -0.0001574917
              5  31        -0.0001563076
              0   5        -0.0001371878
              1  25        -0.0001261857
              2  42         0.0001227284
              0  21        -0.0001026626
              1  43         0.0000974460
              0  42         0.0000968039
              3  43         0.0000908128
              1  29        -0.0000889200
              1  16        -0.0000776006
              1  30        -0.0000431923
              0  33        -0.0000401791
              0  24        -0.0000362079
              5  42         0.0000185599
              3  18        -0.0000134697
              1  18        -0.0000108323
              4  26         0.0000087088
              2  20         0.0000017652
              0  20        -0.0000011192
              0  31         0.0000010510

    Largest TIjAb Amplitudes:
      7   7   0   0        -0.1308781302
      7   7   0   9        -0.0554666827
      7   7   9   0        -0.0554666827
      7   7   9   9        -0.0319941374
      5   5  12  12        -0.0310896966
      5   7  12   0        -0.0286132906
      7   5   0  12        -0.0286132906
      6   6   3   3        -0.0254654148
      7   7   8   8        -0.0250240460
      4   4   3   3        -0.0248928498
      6   7   0   0        -0.0229309489
      7   6   0   0        -0.0229309489
      5   7  12   9        -0.0220205382
      7   5   9  12        -0.0220205382
      5   5   5   5        -0.0215758365
      3   3   0   0        -0.0215053112
      6   6   4   4        -0.0195405967
      4   6   3  10         0.0187700782
      6   4  10   3         0.0187700782
      3   7   2   0        -0.0180611085
      7   3   0   2        -0.0180611085
      7   7  11  11        -0.0180462379
      5   7   5   8         0.0175708502
      7   5   8   5         0.0175708502
      2   7  12   0        -0.0172149383
      7   2   0  12        -0.0172149383
      6   6   7   7        -0.0171873378
      5   5   3   3        -0.0171247321
      4   6   2   4        -0.0169340238
      6   4   4   2        -0.0169340238
      4   4   2   2        -0.0164683594
      6   7   7   8        -0.0162436539
      7   6   8   7        -0.0162436539
      2   7   1   0        -0.0160589704
      7   2   0   1        -0.0160589704
      4   5   3   5         0.0158594761
      5   4   5   3         0.0158594761
      4   4   6   6        -0.0157418183
      3   7   0   2        -0.0154701827
      7   3   2   0        -0.0154701827
      2   7   0  12        -0.0153135482
      7   2  12   0        -0.0153135482
      4   7   6   8        -0.0152595471
      7   4   8   6        -0.0152595471
      4   6   6   7        -0.0150822093
      6   4   7   6        -0.0150822093
      5   6   3   4         0.0150688496
      6   5   4   3         0.0150688496
      2   2  12  12        -0.0148159067
      6   6  10  10        -0.0145315740
      6   7   6   0        -0.0145121032
      7   6   0   6        -0.0145121032
      6   6   0   0        -0.0144448344
      5   6   5   7         0.0142072412
      6   5   7   5         0.0142072412
      4   7   3   8        -0.0139035709
      7   4   8   3        -0.0139035709
      4   6  10   3         0.0136576044
      6   4   3  10         0.0136576044
      3   5   1   5         0.0136461260
      5   3   5   1         0.0136461260
      4   6   3   7        -0.0135677203
      6   4   7   3        -0.0135677203
      6   6   2   2        -0.0135619264
      2   7   1   9        -0.0133742691
      7   2   9   1        -0.0133742691
      2   7  12   9        -0.0133006474
      7   2   9  12        -0.0133006474
      5   6  12   6        -0.0130577171
      6   5   6  12        -0.0130577171
      3   7   1   8        -0.0130488511
      7   3   8   1        -0.0130488511
      2   7  13   9        -0.0129055182
      7   2   9  13        -0.0129055182
      5   6   5  10        -0.0128431502
      6   5  10   5        -0.0128431502
      5   5  19  19        -0.0126881291
      3   5   2  12        -0.0126226734
      5   3  12   2        -0.0126226734
      2   7   0   4        -0.0126141612
      7   2   4   0        -0.0126141612
      6   7   0   3        -0.0125421138
      7   6   3   0        -0.0125421138
      3   3  12  12        -0.0124897169
      6   7   6   9        -0.0124489567
      7   6   9   6        -0.0124489567
      4   7   7   0        -0.0124212564
      7   4   0   7        -0.0124212564
      4   7   7   9        -0.0123299199
      7   4   9   7        -0.0123299199
      3   7   0  11         0.0122262218
      7   3  11   0         0.0122262218
      2   7   0   1        -0.0121961996
      7   2   1   0        -0.0121961996
      3   5   0  19         0.0121950865
      5   3  19   0         0.0121950865
      6   6  15  15        -0.0121723648
      3   6   0  20         0.0121393463
      6   3  20   0         0.0121393463
      2   5  13  12        -0.0120129524
      5   2  12  13        -0.0120129524
      4   6   4   2        -0.0120072779
      6   4   2   4        -0.0120072779
      3   3   2   2        -0.0119982126
      4   6   3  17         0.0119778302
      6   4  17   3         0.0119778302
      4   5   7  12        -0.0119677054
      5   4  12   7        -0.0119677054
      3   4   1   3        -0.0119496016
      4   3   3   1        -0.0119496016
      6   6   7  10         0.0119385889
      6   6  10   7         0.0119385889
      3   6   1   7        -0.0119369354
      6   3   7   1        -0.0119369354
      4   4  10  10        -0.0119029658
      6   7   0   9        -0.0118900355
      7   6   9   0        -0.0118900355
      4   5   6   5         0.0118656580
      5   4   5   6         0.0118656580
      4   7  10   0         0.0117775027
      7   4   0  10         0.0117775027
      7   7  12  12        -0.0117141150
      3   4   0  18         0.0116782058
      4   3  18   0         0.0116782058
      3   7   2   9        -0.0116430444
      7   3   9   2        -0.0116430444
      4   5   2   3         0.0116370212
      5   4   3   2         0.0116370212
      2   7  13   0        -0.0114983145
      7   2   0  13        -0.0114983145
      3   3   1   1        -0.0114799019
      3   7   0   5        -0.0113737404
      7   3   5   0        -0.0113737404
      6   6  16  16        -0.0113187767
      4   4   4   4        -0.0112600584
      4   4   3  14        -0.0110972095
      4   4  14   3        -0.0110972095
      3   6   1  10         0.0110929031
      6   3  10   1         0.0110929031
      5   5   2   2        -0.0110107719
      4   4   7   7        -0.0110037195
      6   7   9   0        -0.0109726171
      7   6   0   9        -0.0109726171
      6   7  10   8         0.0109600801
      7   6   8  10         0.0109600801
      6   6   6   6        -0.0109560549
      3   7   5   0        -0.0109052761
      7   3   0   5        -0.0109052761
      4   6   7   6        -0.0108923087
      6   4   6   7        -0.0108923087
      3   7   5   9        -0.0108656351
      7   3   9   5        -0.0108656351
      4   7  10   9         0.0108631798
      7   4   9  10         0.0108631798
      4   6  15   4        -0.0108530970
      6   4   4  15        -0.0108530970
      3   7  13   8        -0.0108366382
      7   3   8  13        -0.0108366382
      2   7   4   0        -0.0108019576
      7   2   0   4        -0.0108019576
      5   5  14  14        -0.0107290694
      3   3   4   4        -0.0105869287
      3   3  15  15        -0.0105821034
      2   7  11   8        -0.0105604000
      7   2   8  11        -0.0105604000
      3   7   0  24        -0.0105151835
      7   3  24   0        -0.0105151835
      4   4  18  18        -0.0104756583
      6   6  14  14        -0.0104649670
      5   5   3  14        -0.0104092119
      5   5  14   3        -0.0104092119
      3   5   4   2         0.0102865342
      5   3   2   4         0.0102865342
      5   5   0   0        -0.0102599697
      2   2   0   0        -0.0102362007
      6   6  20  20        -0.0102316088
      4   4  14  14        -0.0101660266
      6   6   3  14        -0.0101522036
      6   6  14   3        -0.0101522036
      3   3   5   5        -0.0101156010
      4   6  15  16        -0.0100488712
      6   4  16  15        -0.0100488712
      4   6  17   3         0.0100433024
      6   4   3  17         0.0100433024
      4   6  18  20        -0.0100207385
      6   4  20  18        -0.0100207385
      3   5   2   4         0.0099947732
      5   3   4   2         0.0099947732
      3   5  13   5         0.0099351068
      5   3   5  13         0.0099351068
      2   2   3   3        -0.0098940258
      3   7   0  15        -0.0098863710
      7   3  15   0        -0.0098863710
      4   6   4  15        -0.0098715937
      6   4  15   4        -0.0098715937
      2   5   1  12        -0.0098098490
      5   2  12   1        -0.0098098490
      4   4  15  15        -0.0097820742
      4   6  16  15        -0.0097348332
      6   4  15  16        -0.0097348332
      7   7  19  19        -0.0097204145
      3   4  13   3        -0.0097096504
      4   3   3  13        -0.0097096504
      6   6   4  16        -0.0096679620
      6   6  16   4        -0.0096679620
      5   6   3  16         0.0095920611
      6   5  16   3         0.0095920611
      6   6  17  17        -0.0095404929
      4   6  14  17         0.0094680311
      6   4  17  14         0.0094680311
      4   5  15   3         0.0094413384
      5   4   3  15         0.0094413384
      2   5  11   5         0.0093663762
      5   2   5  11         0.0093663762
      4   4   7  10         0.0093589625
      4   4  10   7         0.0093589625
      3   5  11  12        -0.0093434531
      5   3  12  11        -0.0093434531
      2   5  12  12        -0.0092997817
      5   2  12  12        -0.0092997817
      7   7  18  18        -0.0092678603
      3   5  12   2        -0.0092532902
      5   3   2  12        -0.0092532902
      3   4   1   6        -0.0092015689
      4   3   6   1        -0.0092015689
      2   7   9  12        -0.0092002725
      7   2  12   9        -0.0092002725
      5   7   0   4         0.0091751410
      7   5   4   0         0.0091751410
      4   6   6  10         0.0091369874
      6   4  10   6         0.0091369874
      3   5   5  12        -0.0090917528
      5   3  12   5        -0.0090917528
      5   6  14  16         0.0090744625
      6   5  16  14         0.0090744625
      3   3   2  15        -0.0090635506
      3   3  15   2        -0.0090635506
      5   5   4   4        -0.0090100359
      3   6   3   2        -0.0090008226
      6   3   2   3        -0.0090008226
      3   3   0   9        -0.0090004681
      3   3   9   0        -0.0090004681
      6   6  18  18        -0.0089773383
      5   7   4   0         0.0089467120
      7   5   0   4         0.0089467120
      6   6   2  15        -0.0089256207
      6   6  15   2        -0.0089256207
      4   5  18  19        -0.0088817478
      5   4  19  18        -0.0088817478
      4   4   3   6        -0.0088323265
      4   4   6   3        -0.0088323265
      2   2  13  13        -0.0088300475
      4   4  20  20        -0.0087854071
      2   4  11   6        -0.0087303688
      4   2   6  11        -0.0087303688
      3   6  13   7        -0.0087151507
      6   3   7  13        -0.0087151507
      3   3   3   3        -0.0086297192
      4   4  16  16        -0.0086225527
      4   7   0  10         0.0085745317
      7   4  10   0         0.0085745317
      2   7   0  16        -0.0084974576
      7   2  16   0        -0.0084974576
      3   6  13  10         0.0084174678
      6   3  10  13         0.0084174678
      3   6   3  15        -0.0083594180
      6   3  15   3        -0.0083594180
      4   7   3  19         0.0083507215
      7   4  19   3         0.0083507215
      2   4   0  20         0.0083494323
      4   2  20   0         0.0083494323
      2   2  12  13        -0.0083405331
      2   2  13  12        -0.0083405331
      2   7   9   1        -0.0083265982
      7   2   1   9        -0.0083265982
      4   4   2  15        -0.0082888703
      4   4  15   2        -0.0082888703
      2   2   0   9        -0.0082431103
      2   2   9   0        -0.0082431103
      3   7  15   0        -0.0082376911
      7   3   0  15        -0.0082376911
      2   6  11   7        -0.0082234986
      6   2   7  11        -0.0082234986
      3   6   5   3        -0.0081633540
      6   3   3   5        -0.0081633540
      5   7   3  18         0.0081455660
      7   5  18   3         0.0081455660
      3   5   4  15         0.0081412082
      5   3  15   4         0.0081412082
      6   7   9   9        -0.0081121867
      7   6   9   9        -0.0081121867
      4   6  20  18        -0.0080755795
      6   4  18  20        -0.0080755795
      3   5  15   4         0.0080747100
      5   3   4  15         0.0080747100
      2   7   2   8        -0.0080565966
      7   2   8   2        -0.0080565966
      5   6   1   3         0.0080536574
      6   5   3   1         0.0080536574
      2   2  11  11        -0.0080374358
      2   6   0  18         0.0080260082
      6   2  18   0         0.0080260082
      5   6  19  20        -0.0080258651
      6   5  20  19        -0.0080258651
      5   6  12   0        -0.0079806297
      6   5   0  12        -0.0079806297
      5   7  13   0        -0.0079693744
      7   5   0  13        -0.0079693744
      5   5   4  12         0.0079657955
      5   5  12   4         0.0079657955
      3   6  14  15        -0.0079616380
      6   3  15  14        -0.0079616380
      2   2   9   9        -0.0079468410
      4   5  10  12         0.0079259377
      5   4  12  10         0.0079259377
      3   4   3   4        -0.0079053788
      4   3   4   3        -0.0079053788
      4   6  17  14         0.0078775544
      6   4  14  17         0.0078775544
      3   4   5  10         0.0078648220
      4   3  10   5         0.0078648220
      3   7   9   2        -0.0077815333
      7   3   2   9        -0.0077815333
      4   5   3  21         0.0077466553
      5   4  21   3         0.0077466553
      4   4  17  17        -0.0077414349
      5   5   1   1        -0.0077218392
      3   3   1  13        -0.0076915789
      3   3  13   1        -0.0076915789
      4   5  15  14         0.0076906631
      5   4  14  15         0.0076906631
      4   6   7   3        -0.0076881715
      6   4   3   7        -0.0076881715
      4   6  10   6         0.0076870265
      6   4   6  10         0.0076870265
      6   6   1   1        -0.0076784363
      7   7   3   3        -0.0076510159
      2   2  19  19        -0.0076496942
      2   4  13  10         0.0076457618
      4   2  10  13         0.0076457618
      3   3  13  13        -0.0076231003
      3   4  13   6        -0.0076097900
      4   3   6  13        -0.0076097900
      5   5  15  15        -0.0075815053
      3   3  16  16        -0.0075800660
      5   6  14   4         0.0075530031
      6   5   4  14         0.0075530031
      3   5   5   1         0.0075236637
      5   3   1   5         0.0075236637
      6   7   3   3         0.0074824470
      7   6   3   3         0.0074824470
      2   4  13   7        -0.0074804605
      4   2   7  13        -0.0074804605
      7   7   1   1        -0.0074357652
      3   4   5   7        -0.0073456548
      4   3   7   5        -0.0073456548
      2   2   3  14        -0.0073360061
      2   2  14   3        -0.0073360061
      3   5   4   5         0.0073277904
      5   3   5   4         0.0073277904
      5   7  14  18         0.0072828736
      7   5  18  14         0.0072828736
      7   7  24  24        -0.0072732362
      3   6  15   3        -0.0072468563
      6   3   3  15        -0.0072468563
      7   7   0   6         0.0072358267
      7   7   6   0         0.0072358267
      2   4   2   6        -0.0071746113
      4   2   6   2        -0.0071746113
      5   5   2  15        -0.0071481998
      5   5  15   2        -0.0071481998
      3   6   2   6        -0.0071271439
      6   3   6   2        -0.0071271439
      3   6   2  22        -0.0071201520
      6   3  22   2        -0.0071201520
      2   2  14  14        -0.0070976705
      4   4  21  21        -0.0070926834
      3   6   4  10         0.0070912270
      6   3  10   4         0.0070912270
      7   7   1  12        -0.0070911122
      7   7  12   1        -0.0070911122
      3   5  15  16         0.0070806405
      5   3  16  15         0.0070806405
      2   6   3  12        -0.0070551382
      6   2  12   3        -0.0070551382
      3   7  12  19         0.0070174991
      7   3  19  12         0.0070174991
      2   4   1  10         0.0070139322
      4   2  10   1         0.0070139322
      2   3   2   4        -0.0070009131
      3   2   4   2        -0.0070009131
      6   6  10  17        -0.0069852615
      6   6  17  10        -0.0069852615
      5   6   4   3         0.0069820904
      6   5   3   4         0.0069820904
      3   3   2   5        -0.0069514687
      3   3   5   2        -0.0069514687
      7   7   0   3        -0.0069410080
      7   7   3   0        -0.0069410080
      2   4   1   7        -0.0069181338
      4   2   7   1        -0.0069181338
      3   5  16  15         0.0069102714
      5   3  15  16         0.0069102714
      5   5  11  11        -0.0068993836
      3   6  20   0         0.0068866632
      6   3   0  20         0.0068866632
      3   3  19  19        -0.0068691575
      5   6  17  15        -0.0068557295
      6   5  15  17        -0.0068557295
      2   6   3   1        -0.0068435783
      6   2   1   3        -0.0068435783
      2   5   2   5         0.0068357816
      5   2   5   2         0.0068357816
      2   6  13   3        -0.0068007998
      6   2   3  13        -0.0068007998
      2   5  12  13        -0.0067824093
      5   2  13  12        -0.0067824093
      3   6   5   6        -0.0067773121
      6   3   6   5        -0.0067773121
      4   4   0   0        -0.0067752705
      2   4  12  10         0.0067689633
      4   2  10  12         0.0067689633
      6   6  23  23        -0.0067478768
      3   7  11   9        -0.0067400069
      7   3   9  11        -0.0067400069
      3   5  19   0         0.0067391351
      5   3   0  19         0.0067391351
      6   6  21  21        -0.0067344880
      3   4   4   3        -0.0067229020
      4   3   3   4        -0.0067229020
      2   6  13   6        -0.0067218519
      6   2   6  13        -0.0067218519
      7   7   5  11         0.0067204232
      7   7  11   5         0.0067204232
      3   7  15   9        -0.0066425497
      7   3   9  15        -0.0066425497
      3   3  10  10        -0.0066369194
      3   3   4  16        -0.0066176352
      3   3  16   4        -0.0066176352
      4   6   2  16        -0.0066003877
      6   4  16   2        -0.0066003877
      2   7   4   9        -0.0065934060
      7   2   9   4        -0.0065934060
      3   5  15  12        -0.0065794007
      5   3  12  15        -0.0065794007
      3   3  20  20        -0.0065766901
      3   4  14  16        -0.0065706909
      4   3  16  14        -0.0065706909
      4   4   4  16        -0.0065674866
      4   4  16   4        -0.0065674866
      5   7  19  24         0.0065521915
      7   5  24  19         0.0065521915
      2   7   9  13        -0.0065512790
      7   2  13   9        -0.0065512790
      3   4   4   6        -0.0065461657
      4   3   6   4        -0.0065461657
      3   6   4   7        -0.0065341072
      6   3   7   4        -0.0065341072
      3   3   9   9        -0.0065276500
      3   6  21   3        -0.0064923503
      6   3   3  21        -0.0064923503
      5   5  21  21        -0.0064921891
      4   5   4  10        -0.0064589249
      5   4  10   4        -0.0064589249
      3   7   4   8        -0.0064506171
      7   3   8   4        -0.0064506171
      7   7   8  10        -0.0064490122
      7   7  10   8        -0.0064490122
      4   5  16  17        -0.0064345418
      5   4  17  16        -0.0064345418
      3   6   3   5        -0.0064193800
      6   3   5   3        -0.0064193800
      6   7  22   0        -0.0064054233
      7   6   0  22        -0.0064054233
      2   6   1   6        -0.0063768227
      6   2   6   1        -0.0063768227
      3   4   2   7        -0.0063765767
      4   3   7   2        -0.0063765767
      2   2   1  13        -0.0063741684
      2   2  13   1        -0.0063741684
      4   4  10  17        -0.0063735614
      4   4  17  10        -0.0063735614
      2   6   2   7        -0.0063589127
      6   2   7   2        -0.0063589127
      3   3  14  14        -0.0063357064
      3   6  11   6        -0.0063277848
      6   3   6  11        -0.0063277848
      2   7   9   4        -0.0062641776
      7   2   4   9        -0.0062641776
      7   7   2   2        -0.0062606822
      4   7  14  19         0.0062543281
      7   4  19  14         0.0062543281
      2   2   1  12        -0.0062483728
      2   2  12   1        -0.0062483728
      3   5   9  19         0.0062343696
      5   3  19   9         0.0062343696
      2   6   3  13        -0.0062079950
      6   2  13   3        -0.0062079950
      6   6  11  11        -0.0062036176
      3   3  18  18        -0.0062033971
      5   6  12  22        -0.0062001948
      6   5  22  12        -0.0062001948
      6   7   3   9        -0.0061705030
      7   6   9   3        -0.0061705030
      4   5  14  11        -0.0061636600
      5   4  11  14        -0.0061636600
      3   6  10   1         0.0061554915
      6   3   1  10         0.0061554915
      3   4  18   0         0.0061322513
      4   3   0  18         0.0061322513
      5   5   5  21        -0.0061298974
      5   5  21   5        -0.0061298974
      3   3  11  11        -0.0061251898
      6   6   4  13        -0.0061166394
      6   6  13   4        -0.0061166394
      4   6  16  11         0.0060651161
      6   4  11  16         0.0060651161
      5   6   2   7         0.0060615630
      6   5   7   2         0.0060615630
      4   6  14  10         0.0060535337
      6   4  10  14         0.0060535337
      2   5   2   2         0.0060427955
      5   2   2   2         0.0060427955
      3   6   7   1        -0.0060236499
      6   3   1   7        -0.0060236499
      3   6  17  16         0.0060008089
      6   3  16  17         0.0060008089
      3   6   4  23        -0.0059996562
      6   3  23   4        -0.0059996562
      3   7   9  24        -0.0059874573
      7   3  24   9        -0.0059874573
      2   5   0  26        -0.0059854642
      5   2  26   0        -0.0059854642
      2   5   8  19         0.0059758232
      5   2  19   8         0.0059758232
      4   5   6   2         0.0059756758
      5   4   2   6         0.0059756758
      2   4   3  21        -0.0059589509
      4   2  21   3        -0.0059589509
      7   7   4   4        -0.0059424664
      3   7   9   5        -0.0059382353
      7   3   5   9        -0.0059382353
      3   6  19  18         0.0059159408
      6   3  18  19         0.0059159408
      7   7   6   9         0.0059073753
      7   7   9   6         0.0059073753
      3   4  11   7        -0.0059064063
      4   3   7  11        -0.0059064063
      2   2   1   1        -0.0058962856
      3   4   3  13        -0.0058921487
      4   3  13   3        -0.0058921487
      7   7   0  26        -0.0058909075
      7   7  26   0        -0.0058909075
      3   4   2  10         0.0058893071
      4   3  10   2         0.0058893071
      2   3   1   5        -0.0058789500
      3   2   5   1        -0.0058789500
      2   7   0  13        -0.0058657889
      7   2  13   0        -0.0058657889
      5   7  21  19        -0.0058615718
      7   5  19  21        -0.0058615718
      7   7   8  19         0.0058562413
      7   7  19   8         0.0058562413
      5   6  10   2        -0.0058556128
      6   5   2  10        -0.0058556128
      2   2  18  18        -0.0058497014
      6   6  22  22        -0.0058472190
      5   7   9  12        -0.0058400995
      7   5  12   9        -0.0058400995
      3   4  17  15         0.0058386927
      4   3  15  17         0.0058386927
      6   6  11  15         0.0058229384
      6   6  15  11         0.0058229384
      7   7   5   5        -0.0058157835
      2   7   3  18         0.0057871569
      7   2  18   3         0.0057871569
      5   6  12   9        -0.0057819375
      6   5   9  12        -0.0057819375
      3   3  17  17        -0.0057630762
      3   4   2  23        -0.0057597310
      4   3  23   2        -0.0057597310
      2   3   4   2        -0.0057544955
      3   2   2   4        -0.0057544955
      3   6  15  14        -0.0057538150
      6   3  14  15        -0.0057538150
      3   6  10   4         0.0057375077
      6   3   4  10         0.0057375077
      4   6  11  16         0.0057316110
      6   4  16  11         0.0057316110
      3   4   4  22        -0.0057266399
      4   3  22   4        -0.0057266399
      2   3   0  19        -0.0057089719
      3   2  19   0        -0.0057089719
      5   7   0  16         0.0057052128
      7   5  16   0         0.0057052128
      2   5  12  25        -0.0056886727
      5   2  25  12        -0.0056886727
      3   3   4  12         0.0056529686
      3   3  12   4         0.0056529686
      3   6  12  23         0.0056396305
      6   3  23  12         0.0056396305
      2   4  12  17         0.0056205680
      4   2  17  12         0.0056205680
      2   6  12   3        -0.0056049962
      6   2   3  12        -0.0056049962
      5   6   2  23         0.0055850099
      6   5  23   2         0.0055850099
      2   3  15   4        -0.0055718491
      3   2   4  15        -0.0055718491
      4   6  21  25         0.0055716811
      6   4  25  21         0.0055716811
      7   7  13  13        -0.0055645310
      4   4   1   1        -0.0055592841
      3   5   2  16         0.0055525231
      5   3  16   2         0.0055525231
      5   5  17  17        -0.0055452942
      5   6  16   3         0.0055424322
      6   5   3  16         0.0055424322
      5   6  25   3        -0.0055221402
      6   5   3  25        -0.0055221402
      3   7   9  15        -0.0055183389
      7   3  15   9        -0.0055183389
      4   7  18  24         0.0055173247
      7   4  24  18         0.0055173247
      2   5   5  11         0.0055127557
      5   2  11   5         0.0055127557
      2   6  18   0         0.0055101906
      6   2   0  18         0.0055101906
      2   6   1   3        -0.0055054601
      6   2   3   1        -0.0055054601
      4   5  22   2         0.0055042157
      5   4   2  22         0.0055042157
      2   3  18  20        -0.0055003327
      3   2  20  18        -0.0055003327
      3   4  12  14        -0.0054925755
      4   3  14  12        -0.0054925755
      3   3   7   7        -0.0054919394
      5   6  16  14         0.0054832728
      6   5  14  16         0.0054832728
      2   5   4   4         0.0054829555
      5   2   4   4         0.0054829555
      6   6  25  25        -0.0054735782
      3   4  12   3        -0.0054689832
      4   3   3  12        -0.0054689832
      4   4  11  11        -0.0054502794
      5   7   5  10         0.0054476659
      7   5  10   5         0.0054476659
      3   6   2   3        -0.0054406775
      6   3   3   2        -0.0054406775
      2   5   3  14        -0.0054381098
      5   2  14   3        -0.0054381098
      5   5   4  16        -0.0054120598
      5   5  16   4        -0.0054120598
      6   7   9   3        -0.0054081059
      7   6   3   9        -0.0054081059
      2   3   8   9        -0.0053997298
      3   2   9   8        -0.0053997298
      5   6   4  22         0.0053953461
      6   5  22   4         0.0053953461
      2   5   3  27        -0.0053922899
      5   2  27   3        -0.0053922899
      3   6  15  22        -0.0053903400
      6   3  22  15        -0.0053903400
      4   7   6  10        -0.0053864860
      7   4  10   6        -0.0053864860
      2   3   8   0        -0.0053835508
      3   2   0   8        -0.0053835508
      2   2   8   8        -0.0053751503
      4   6  16   2        -0.0053710612
      6   4   2  16        -0.0053710612
      2   3   3  10         0.0053570451
      3   2  10   3         0.0053570451
      4   4  12  12        -0.0053445526
      6   6   5   5        -0.0053258089
      6   6  13  13        -0.0053182386
      5   7  19   2         0.0053161070
      7   5   2  19         0.0053161070
      4   5   2  14         0.0053040229
      5   4  14   2         0.0053040229
      5   5  16  16        -0.0053035922
      5   6   0  18        -0.0053007232
      6   5  18   0        -0.0053007232
      4   6   2  13        -0.0052967690
      6   4  13   2        -0.0052967690
      2   3   4  15        -0.0052870153
      3   2  15   4        -0.0052870153
      3   3   1   4        -0.0052792441
      3   3   4   1        -0.0052792441
      2   3  13   5        -0.0052770697
      3   2   5  13        -0.0052770697
      2   5   0   0         0.0052590063
      5   2   0   0         0.0052590063
      4   4  22  22        -0.0052535243
      3   3   4  13        -0.0052486382
      3   3  13   4        -0.0052486382
      3   6  16  17         0.0052423395
      6   3  17  16         0.0052423395
      3   5  12  11        -0.0052303448
      5   3  11  12        -0.0052303448
      4   7  20  12         0.0052270389
      7   4  12  20         0.0052270389
      3   3   5  15        -0.0052216846
      3   3  15   5        -0.0052216846
      4   4  23  23        -0.0052182012
      3   4   9  18         0.0052158941
      4   3  18   9         0.0052158941
      6   6  12  12        -0.0052129786
      5   5  13  13        -0.0051904663
      4   6  22  23        -0.0051871665
      6   4  23  22        -0.0051871665
      2   5  12  29        -0.0051840906
      5   2  29  12        -0.0051840906
      3   6  11  14         0.0051828186
      6   3  14  11         0.0051828186
      3   4   3   1        -0.0051818218
      4   3   1   3        -0.0051818218
      3   3  21  21        -0.0051809416
      5   7   4   9         0.0051764757
      7   5   9   4         0.0051764757
      3   5  12  24         0.0051740316
      5   3  24  12         0.0051740316
      4   7  18  11        -0.0051716478
      7   4  11  18        -0.0051716478
      3   3   0  26         0.0051704839
      3   3  26   0         0.0051704839
      4   4   0   3         0.0051571282
      4   4   3   0         0.0051571282
      4   5   4  17        -0.0051541911
      5   4  17   4        -0.0051541911
      3   5  16   2         0.0051482120
      5   3   2  16         0.0051482120
      3   4  19  20         0.0051434494
      4   3  20  19         0.0051434494
      3   5  12  15        -0.0051215003
      5   3  15  12        -0.0051215003
      2   4  20   0         0.0051207588
      4   2   0  20         0.0051207588
      2   2   5   5        -0.0051199326
      3   6   3  21        -0.0051023211
      6   3  21   3        -0.0051023211
      7   7   4  12        -0.0051007783
      7   7  12   4        -0.0051007783
      3   6  12  17         0.0050832667
      6   3  17  12         0.0050832667
      2   4  12   7        -0.0050778996
      4   2   7  12        -0.0050778996
      3   6  10  13         0.0050656862
      6   3  13  10         0.0050656862
      2   7  25   0        -0.0050525991
      7   2   0  25        -0.0050525991
      3   5  12  21         0.0050489249
      5   3  21  12         0.0050489249
      2   3  15  16        -0.0050476630
      3   2  16  15        -0.0050476630
      3   5   0  10         0.0050452502
      5   3  10   0         0.0050452502
      4   5  11  14        -0.0050426978
      5   4  14  11        -0.0050426978
      3   4  15  17         0.0050416853
      4   3  17  15         0.0050416853
      3   3  23  23        -0.0050340358
      3   3   5  11        -0.0050327994
      3   3  11   5        -0.0050327994
      3   6  17   4         0.0050326561
      6   3   4  17         0.0050326561
      3   5   5   4         0.0050293245
      5   3   4   5         0.0050293245
      2   4  10   1         0.0050263064
      4   2   1  10         0.0050263064
      4   6  25  21         0.0050262585
      6   4  21  25         0.0050262585
      2   3  20  18        -0.0050247298
      3   2  18  20        -0.0050247298
      3   3  22  22        -0.0050141173
      4   6  21   1        -0.0050015564
      6   4   1  21        -0.0050015564
      4   6   5   1        -0.0049993545
      6   4   1   5        -0.0049993545
      5   5  22  22        -0.0049954737
      7   7  20  20        -0.0049909318
      5   7   2  19         0.0049872475
      7   5  19   2         0.0049872475
      5   7  25   9        -0.0049783035
      7   5   9  25        -0.0049783035
      3   4  10   5         0.0049744831
      4   3   5  10         0.0049744831
      2   7  12  32        -0.0049703595
      7   2  32  12        -0.0049703595
      4   4  13  13        -0.0049683338
      5   6   3  12        -0.0049660727
      6   5  12   3        -0.0049660727
      6   7  20  24         0.0049626341
      7   6  24  20         0.0049626341
      4   5   3  15         0.0049600022
      5   4  15   3         0.0049600022
      6   7   7  10        -0.0049595662
      7   6  10   7        -0.0049595662
      3   5   3  10        -0.0049567540
      5   3  10   3        -0.0049567540
      4   5  20  26         0.0049416534
      5   4  26  20         0.0049416534
      7   7  10  10        -0.0049413347
      4   6  23  22        -0.0049400292
      6   4  22  23        -0.0049400292
      2   2  21  21        -0.0049362736
      5   7  21   8         0.0049285331
      7   5   8  21         0.0049285331
      2   3   2   1        -0.0049224688
      3   2   1   2        -0.0049224688
      3   6  14  11         0.0049160812
      6   3  11  14         0.0049160812
      2   3  11  13        -0.0049078819
      3   2  13  11        -0.0049078819
      4   6   1   5        -0.0049010840
      6   4   5   1        -0.0049010840
      4   5  10   4        -0.0048966141
      5   4   4  10        -0.0048966141
      2   2   2   2        -0.0048960540
      5   6  10  15        -0.0048836859
      6   5  15  10        -0.0048836859
      6   7   4  18        -0.0048758196
      7   6  18   4        -0.0048758196
      3   3   6   6        -0.0048758093
      6   7  10  10         0.0048716684
      7   6  10  10         0.0048716684
      2   6   9  18         0.0048595721
      6   2  18   9         0.0048595721
      2   7  12  26        -0.0048511387
      7   2  26  12        -0.0048511387
      5   5   2   5        -0.0048507464
      5   5   5   2        -0.0048507464
      5   6  11  17         0.0048436923
      6   5  17  11         0.0048436923
      3   4  10   2         0.0048347928
      4   3   2  10         0.0048347928
      3   4   3  16        -0.0048301110
      4   3  16   3        -0.0048301110
      5   6  21  10        -0.0048290412
      6   5  10  21        -0.0048290412
      2   3   2  13        -0.0048281546
      3   2  13   2        -0.0048281546
      3   4  16  14        -0.0048213496
      4   3  14  16        -0.0048213496
      3   4  14   4        -0.0048147109
      4   3   4  14        -0.0048147109
      4   6   1  21        -0.0048121233
      6   4  21   1        -0.0048121233
      3   4  21  10         0.0048107691
      4   3  10  21         0.0048107691
      3   4  12  22         0.0048087390
      4   3  22  12         0.0048087390
      6   7  20  11        -0.0047996783
      7   6  11  20        -0.0047996783
      2   6   2  10         0.0047988084
      6   2  10   2         0.0047988084
      2   5  15  15         0.0047883553
      5   2  15  15         0.0047883553
      2   5  25  12        -0.0047814911
      5   2  12  25        -0.0047814911
      4   5  10  25         0.0047723775
      5   4  25  10         0.0047723775
      2   6  14  12        -0.0047668497
      6   2  12  14        -0.0047668497
      5   7  25   0        -0.0047658451
      7   5   0  25        -0.0047658451
      2   5  12  35        -0.0047584263
      5   2  35  12        -0.0047584263
      5   7   0  12        -0.0047583363
      7   5  12   0        -0.0047583363
      5   6  26  18         0.0047529046
      6   5  18  26         0.0047529046
      3   4  15  10         0.0047478129
      4   3  10  15         0.0047478129
      2   3  13   2        -0.0047401277
      3   2   2  13        -0.0047401277
      2   3  16  15        -0.0047365913
      3   2  15  16        -0.0047365913
      7   7   1   4        -0.0047319274
      7   7   4   1        -0.0047319274
      2   4  10  13         0.0047271354
      4   2  13  10         0.0047271354
      2   2   6   6        -0.0047161757
      5   5  10  10        -0.0047098967
      5   5   1  13        -0.0046957487
      5   5  13   1        -0.0046957487
      3   5  14  17        -0.0046955320
      5   3  17  14        -0.0046955320
      3   6   9  20         0.0046886576
      6   3  20   9         0.0046886576
      5   5  12  25        -0.0046822931
      5   5  25  12        -0.0046822931
      2   7   0  25        -0.0046624669
      7   2  25   0        -0.0046624669
      3   7   1  10        -0.0046499007
      7   3  10   1        -0.0046499007
      1   1  42  42        -0.0046469174
      0   0  42  42        -0.0046434884
      0   1  42  43        -0.0046407971
      1   0  43  42        -0.0046407971
      0   1  43  42        -0.0046407306
      1   0  42  43        -0.0046407306
      3   6   6  11        -0.0046404657
      6   3  11   6        -0.0046404657
      1   1  43  43        -0.0046387797
      0   0  43  43        -0.0046354352
      3   6  26  20        -0.0046325719
      6   3  20  26        -0.0046325719
      4   5  23  12        -0.0046271493
      5   4  12  23        -0.0046271493
      2   5   4  12        -0.0046088972
      5   2  12   4        -0.0046088972
      2   3  11   1        -0.0046056112
      3   2   1  11        -0.0046056112
      4   6  13   2        -0.0046049097
      6   4   2  13        -0.0046049097
      6   7  18  12         0.0046027624
      7   6  12  18         0.0046027624
      3   4   0   4         0.0045871672
      4   3   4   0         0.0045871672
      4   7   3  10        -0.0045863297
      7   4  10   3        -0.0045863297
      2   4   6  11        -0.0045759461
      4   2  11   6        -0.0045759461
      6   6   1  13        -0.0045649111
      6   6  13   1        -0.0045649111
      2   4   9  20         0.0045630833
      4   2  20   9         0.0045630833
      5   7  11  19         0.0045436888
      7   5  19  11         0.0045436888
      6   6   6   9        -0.0045415803
      6   6   9   6        -0.0045415803
      2   2  20  20        -0.0045348142
      2   7   8  24        -0.0045315185
      7   2  24   8        -0.0045315185
      5   7  12   6         0.0045312842
      7   5   6  12         0.0045312842
      4   5  14  21         0.0045240206
      5   4  21  14         0.0045240206
      3   4  25   3         0.0045216762
      4   3   3  25         0.0045216762
      2   2  24  24        -0.0045182061
      5   6  15  17        -0.0045158295
      6   5  17  15        -0.0045158295
      6   6   2   5        -0.0045122694
      6   6   5   2        -0.0045122694
      4   4  25  25        -0.0045119319
      4   5  17  16        -0.0045039022
      5   4  16  17        -0.0045039022
      2   5  29  12        -0.0045019527
      5   2  12  29        -0.0045019527
      3   4   6   1        -0.0045006103
      4   3   1   6        -0.0045006103
      2   7  15   8        -0.0044887628
      7   2   8  15        -0.0044887628
      2   5  13  25        -0.0044790745
      5   2  25  13        -0.0044790745
      3   4  10  21         0.0044773823
      4   3  21  10         0.0044773823
      6   7  17  19        -0.0044758977
      7   6  19  17        -0.0044758977
      7   7  11  24         0.0044731316
      7   7  24  11         0.0044731316
      5   7  19  11        -0.0044705068
      7   5  11  19        -0.0044705068
      2   4   7   1        -0.0044660508
      4   2   1   7        -0.0044660508
      3   3   3  14        -0.0044540357
      3   3  14   3        -0.0044540357
      3   7   8   1        -0.0044528237
      7   3   1   8        -0.0044528237
      6   6   0   9        -0.0044511106
      6   6   9   0        -0.0044511106
      5   5  24  24        -0.0044456775
      6   7   0  14        -0.0044383292
      7   6  14   0        -0.0044383292
      6   6   3   6        -0.0044279779
      6   6   6   3        -0.0044279779
      5   6   2  10        -0.0044220704
      6   5  10   2        -0.0044220704
      6   7  16  18        -0.0044215960
      7   6  18  16        -0.0044215960
      2   5   6  14        -0.0044136797
      5   2  14   6        -0.0044136797
      2   5  15   5         0.0044111022
      5   2   5  15         0.0044111022
      2   4   2   3        -0.0044060759
      4   2   3   2        -0.0044060759
      2   2  10  10        -0.0044059911
      3   5   0  17         0.0044026283
      5   3  17   0         0.0044026283
      2   6   2  23        -0.0043987445
      6   2  23   2        -0.0043987445
      3   7   8  13        -0.0043986300
      7   3  13   8        -0.0043986300
      2   4  13  17         0.0043712421
      4   2  17  13         0.0043712421
      3   6  13  17         0.0043564776
      6   3  17  13         0.0043564776
      2   3   1   2        -0.0043405458
      3   2   2   1        -0.0043405458
      2   7   9  16        -0.0043398317
      7   2  16   9        -0.0043398317
      5   7  16   0         0.0043376218
      7   5   0  16         0.0043376218
      7   7   1  13        -0.0043375082
      7   7  13   1        -0.0043375082
      5   6  21  17        -0.0043337123
      6   5  17  21        -0.0043337123
[...]
      2   0  15  31        -0.0000010334
      7   7  36  42        -0.0000010329
      7   7  42  36        -0.0000010329
      1   7   0  36         0.0000010300
      7   1  36   0         0.0000010300
      2   4  38   8        -0.0000010260
      4   2   8  38        -0.0000010260
      5   6   0  41         0.0000010217
      6   5  41   0         0.0000010217
      5   6  43  26        -0.0000010117
      6   5  26  43        -0.0000010117
      0   7  22   4         0.0000010109
      7   0   4  22         0.0000010109
      1   6  20  37        -0.0000010100
      6   1  37  20        -0.0000010100
      1   4  15  28        -0.0000010080
      4   1  28  15        -0.0000010080
      1   4  41   9        -0.0000010061
      4   1   9  41        -0.0000010061
      4   5   6  42        -0.0000010056
      5   4  42   6        -0.0000010056
      1   4  13   9         0.0000010018
      4   1   9  13         0.0000010018
      0   6  26  38         0.0000009993
      6   0  38  26         0.0000009993
      4   7  43  33        -0.0000009937
      7   4  33  43        -0.0000009937
      0   0  18  29         0.0000009808
      0   0  29  18         0.0000009808
      2   7  43   6        -0.0000009785
      7   2   6  43        -0.0000009785
      2   5  43   1        -0.0000009716
      5   2   1  43        -0.0000009716
      0   2  23  28         0.0000009715
      2   0  28  23         0.0000009715
      1   2  14  28        -0.0000009651
      2   1  28  14        -0.0000009651
      0   4  30  28         0.0000009612
      4   0  28  30         0.0000009612
      0   4  42  26        -0.0000009596
      4   0  26  42        -0.0000009596
      1   4  31   7         0.0000009580
      4   1   7  31         0.0000009580
      0   1  32  19         0.0000009573
      1   0  19  32         0.0000009573
      0   7  19  33        -0.0000009508
      7   0  33  19        -0.0000009508
      0   2  28  34         0.0000009508
      2   0  34  28         0.0000009508
      3   3  24  42         0.0000009446
      3   3  42  24         0.0000009446
      1   4  43  32        -0.0000009401
      4   1  32  43        -0.0000009401
      0   3  32  23         0.0000009262
      3   0  23  32         0.0000009262
      1   7  43  34         0.0000009239
      7   1  34  43         0.0000009239
      0   6  20  39        -0.0000009224
      6   0  39  20        -0.0000009224
      1   4  43  26        -0.0000009193
      4   1  26  43        -0.0000009193
      0   5  31  42        -0.0000009178
      5   0  42  31        -0.0000009178
      5   6  42  23         0.0000009160
      6   5  23  42         0.0000009160
      0   2  26  37        -0.0000009149
      2   0  37  26        -0.0000009149
      0   3  43  24         0.0000009100
      3   0  24  43         0.0000009100
      1   6  43   7         0.0000009055
      6   1   7  43         0.0000009055
      0   3  20  43        -0.0000009048
      3   0  43  20        -0.0000009048
      1   5  43  36         0.0000008994
      5   1  36  43         0.0000008994
      1   4  18  22         0.0000008988
      4   1  22  18         0.0000008988
      4   5  15  27         0.0000008798
      5   4  27  15         0.0000008798
      0   4  42   6        -0.0000008778
      4   0   6  42        -0.0000008778
      0   5  17  28         0.0000008777
      5   0  28  17         0.0000008777
      1   7  43   7        -0.0000008721
      7   1   7  43        -0.0000008721
      4   7  24  43         0.0000008662
      7   4  43  24         0.0000008662
      0   7  43  22         0.0000008567
      7   0  22  43         0.0000008567
      0   2  24   2        -0.0000008534
      2   0   2  24        -0.0000008534
      0   4  42  27        -0.0000008503
      4   0  27  42        -0.0000008503
      5   5  38  43        -0.0000008502
      5   5  43  38        -0.0000008502
      0   1  18  24        -0.0000008444
      1   0  24  18        -0.0000008444
      0   7  42  23        -0.0000008402
      7   0  23  42        -0.0000008402
      1   6  40  26        -0.0000008359
      6   1  26  40        -0.0000008359
      1   4  29  26        -0.0000008337
      4   1  26  29        -0.0000008337
      1   6  11  27         0.0000008304
      6   1  27  11         0.0000008304
      6   6  20  42        -0.0000008271
      6   6  42  20        -0.0000008271
      0   2   9  37        -0.0000008221
      2   0  37   9        -0.0000008221
      4   5  28  43        -0.0000008197
      5   4  43  28        -0.0000008197
      0   2   2  20         0.0000008173
      2   0  20   2         0.0000008173
      1   2   3  28         0.0000008064
      2   1  28   3         0.0000008064
      0   4   1  28         0.0000008048
      4   0  28   1         0.0000008048
      6   7   2  42         0.0000007987
      7   6  42   2         0.0000007987
      0   4  43   7         0.0000007985
      4   0   7  43         0.0000007985
      1   7  42   6        -0.0000007843
      7   1   6  42        -0.0000007843
      2   3  31  43        -0.0000007814
      3   2  43  31        -0.0000007814
      1   7  26  11         0.0000007804
      7   1  11  26         0.0000007804
      1   2   6  39         0.0000007750
      2   1  39   6         0.0000007750
      1   1  18  29         0.0000007705
      1   1  29  18         0.0000007705
      0   1  26  17         0.0000007700
      1   0  17  26         0.0000007700
      3   3  23  28         0.0000007667
      3   3  28  23         0.0000007667
      0   6  38   9         0.0000007606
      6   0   9  38         0.0000007606
      0   0  20  20        -0.0000007478
      4   7  43  24        -0.0000007401
      7   4  24  43        -0.0000007401
      1   3  26  27        -0.0000007218
      3   1  27  26        -0.0000007218
      0   4  43  10        -0.0000007217
      4   0  10  43        -0.0000007217
      0   3   5  30        -0.0000007186
      3   0  30   5        -0.0000007186
      0   3  43  20        -0.0000007166
      3   0  20  43        -0.0000007166
      1   7  43   8         0.0000007151
      7   1   8  43         0.0000007151
      1   5  43  20        -0.0000007108
      5   1  20  43        -0.0000007108
      4   5  42   0         0.0000007071
      5   4   0  42         0.0000007071
      1   4   2  28        -0.0000006843
      4   1  28   2        -0.0000006843
      3   5  18  42        -0.0000006762
      5   3  42  18        -0.0000006762
      0   1  24  18        -0.0000006633
      1   0  18  24        -0.0000006633
      0   1   0  23        -0.0000006626
      1   0  23   0        -0.0000006626
      0   5  18   1         0.0000006619
      5   0   1  18         0.0000006619
      0   2  37  26        -0.0000006610
      2   0  26  37        -0.0000006610
      1   5  42  18        -0.0000006588
      5   1  18  42        -0.0000006588
      4   6  43  31         0.0000006555
      6   4  31  43         0.0000006555
      0   4  23  18        -0.0000006551
      4   0  18  23        -0.0000006551
      1   6  39  12         0.0000006528
      6   1  12  39         0.0000006528
      1   7  42  27        -0.0000006505
      7   1  27  42        -0.0000006505
      1   5  26  23         0.0000006472
      5   1  23  26         0.0000006472
      3   4  43  26         0.0000006450
      4   3  26  43         0.0000006450
      0   6  42  28        -0.0000006450
      6   0  28  42        -0.0000006450
      2   6  43  26        -0.0000006417
      6   2  26  43        -0.0000006417
      1   3  21  11         0.0000006333
      3   1  11  21         0.0000006333
      1   1  20  20        -0.0000006316
      0   5  13  18         0.0000006261
      5   0  18  13         0.0000006261
      0   7  21  39         0.0000006233
      7   0  39  21         0.0000006233
      1   3  25  18        -0.0000006127
      3   1  18  25        -0.0000006127
      0   3  15  35        -0.0000006051
      3   0  35  15        -0.0000006051
      1   4  19   2        -0.0000006006
      4   1   2  19        -0.0000006006
      0   4  24  26         0.0000005969
      4   0  26  24         0.0000005969
      1   4   1  26         0.0000005750
      4   1  26   1         0.0000005750
      0   4  42   0        -0.0000005720
      4   0   0  42        -0.0000005720
      4   7  43  21        -0.0000005591
      7   4  21  43        -0.0000005591
      3   6  43  28         0.0000005584
      6   3  28  43         0.0000005584
      0   4  24  37         0.0000005560
      4   0  37  24         0.0000005560
      2   6  14  43         0.0000005556
      6   2  43  14         0.0000005556
      0   7  43   9         0.0000005471
      7   0   9  43         0.0000005471
      0   6  43  26         0.0000005446
      6   0  26  43         0.0000005446
      1   7  43  23         0.0000005435
      7   1  23  43         0.0000005435
      1   4   1   9         0.0000005428
      4   1   9   1         0.0000005428
      0   7  42  39        -0.0000005329
      7   0  39  42        -0.0000005329
      0   6  20  23        -0.0000005312
      6   0  23  20        -0.0000005312
      0   2  23  34         0.0000005294
      2   0  34  23         0.0000005294
      1   5  21  18        -0.0000005258
      5   1  18  21        -0.0000005258
      0   2   5   2        -0.0000005238
      2   0   2   5        -0.0000005238
      1   7  24   3        -0.0000005077
      7   1   3  24        -0.0000005077
      1   4  42   8        -0.0000004902
      4   1   8  42        -0.0000004902
      0   6  43  14         0.0000004900
      6   0  14  43         0.0000004900
      1   4  28   2        -0.0000004794
      4   1   2  28        -0.0000004794
      1   4  42  19        -0.0000004756
      4   1  19  42        -0.0000004756
      1   7   2  27        -0.0000004740
      7   1  27   2        -0.0000004740
      6   7  42   2         0.0000004661
      7   6   2  42         0.0000004661
      1   3  40  20         0.0000004623
      3   1  20  40         0.0000004623
      3   5  42  43        -0.0000004488
      5   3  43  42        -0.0000004488
      5   7  17  42        -0.0000004460
      7   5  42  17        -0.0000004460
      4   7  41  42         0.0000004422
      7   4  42  41         0.0000004422
      2   3  43  20        -0.0000004387
      3   2  20  43        -0.0000004387
      3   7  32  40         0.0000004386
      7   3  40  32         0.0000004386
      0   4   2   9         0.0000004352
      4   0   9   2         0.0000004352
      0   5  43  18        -0.0000004316
      5   0  18  43        -0.0000004316
      1   5  18   2        -0.0000004257
      5   1   2  18        -0.0000004257
      5   7  42  10         0.0000004250
      7   5  10  42         0.0000004250
      0   7  42  19        -0.0000004241
      7   0  19  42        -0.0000004241
      0   4   4  28         0.0000004198
      4   0  28   4         0.0000004198
      5   7  40  39        -0.0000004184
      7   5  39  40        -0.0000004184
      1   2  27  28        -0.0000004135
      2   1  28  27        -0.0000004135
      1   5  13  31         0.0000004043
      5   1  31  13         0.0000004043
      0   3   1  20         0.0000004037
      3   0  20   1         0.0000004037
      5   6   0  12         0.0000004017
      6   5  12   0         0.0000004017
      2   6  42   8         0.0000003959
      6   2   8  42         0.0000003959
      1   2  26  10         0.0000003897
      2   1  10  26         0.0000003897
      1   2   6  28         0.0000003894
      2   1  28   6         0.0000003894
      1   5  18  36         0.0000003893
      5   1  36  18         0.0000003893
      1   5  31  43        -0.0000003837
      5   1  43  31        -0.0000003837
      1   4   3   4         0.0000003806
      4   1   4   3         0.0000003806
      0   2  11  31         0.0000003779
      2   0  31  11         0.0000003779
      0   3   1  31        -0.0000003723
      3   0  31   1        -0.0000003723
      1   3   5  20         0.0000003625
      3   1  20   5         0.0000003625
      0   2   3  26         0.0000003624
      2   0  26   3         0.0000003624
      0   3   0  39         0.0000003622
      3   0  39   0         0.0000003622
      1   4  24  19        -0.0000003615
      4   1  19  24        -0.0000003615
      6   7  36  42         0.0000003607
      7   6  42  36         0.0000003607
      1   4  18  37         0.0000003566
      4   1  37  18         0.0000003566
      0   3  32  34         0.0000003557
      3   0  34  32         0.0000003557
      0   5  42  33         0.0000003507
      5   0  33  42         0.0000003507
      1   6  19   4        -0.0000003446
      6   1   4  19        -0.0000003446
      3   4  28  42         0.0000003444
      4   3  42  28         0.0000003444
      0   5  41  18         0.0000003433
      5   0  18  41         0.0000003433
      0   6  43   9         0.0000003366
      6   0   9  43         0.0000003366
      4   5  36  22        -0.0000003316
      5   4  22  36        -0.0000003316
      5   7  42  23        -0.0000003314
      7   5  23  42        -0.0000003314
      0   4  11  14        -0.0000003266
      4   0  14  11        -0.0000003266
      2   7  43  14        -0.0000003262
      7   2  14  43        -0.0000003262
      0   5  18  13         0.0000003165
      5   0  13  18         0.0000003165
      1   7  24  14        -0.0000003078
      7   1  14  24        -0.0000003078
      4   6  18  42        -0.0000003016
      6   4  42  18        -0.0000003016
      0   6  43   6        -0.0000003006
      6   0   6  43        -0.0000003006
      3   5  42  18        -0.0000002864
      5   3  18  42        -0.0000002864
      4   6  20  43        -0.0000002786
      6   4  43  20        -0.0000002786
      2   4  42   9         0.0000002764
      4   2   9  42         0.0000002764
      1   5  28   6        -0.0000002748
      5   1   6  28        -0.0000002748
      0   4  41  28         0.0000002723
      4   0  28  41         0.0000002723
      1   3  31   5         0.0000002717
      3   1   5  31         0.0000002717
      0   0   4  25         0.0000002651
      0   0  25   4         0.0000002651
      1   3  20  21        -0.0000002546
      3   1  21  20        -0.0000002546
      0   2  19  39        -0.0000002484
      2   0  39  19        -0.0000002484
      6   7   1  43        -0.0000002283
      7   6  43   1        -0.0000002283
      3   5  43  24        -0.0000002275
      5   3  24  43        -0.0000002275
      0   5  29  38        -0.0000002258
      5   0  38  29        -0.0000002258
      0   4  43  19         0.0000002235
      4   0  19  43         0.0000002235
      0   4  42   9         0.0000002228
      4   0   9  42         0.0000002228
      4   5   0  42        -0.0000002170
      5   4  42   0        -0.0000002170
      0   3  12  20        -0.0000002159
      3   0  20  12        -0.0000002159
      1   6  43   8         0.0000002152
      6   1   8  43         0.0000002152
      1   4  42  28         0.0000002115
      4   1  28  42         0.0000002115
      1   7  28  35        -0.0000001987
      7   1  35  28        -0.0000001987
      4   7  29  21        -0.0000001964
      7   4  21  29        -0.0000001964
      0   4  28  38        -0.0000001915
      4   0  38  28        -0.0000001915
      1   2  23  32         0.0000001888
      2   1  32  23         0.0000001888
      1   4  43   9        -0.0000001886
      4   1   9  43        -0.0000001886
      1   4  13   0         0.0000001850
      4   1   0  13         0.0000001850
      7   7  33  42        -0.0000001836
      7   7  42  33        -0.0000001836
      1   2   5   1         0.0000001824
      2   1   1   5         0.0000001824
      0   5  42  36        -0.0000001820
      5   0  36  42        -0.0000001820
      1   4  31  23        -0.0000001786
      4   1  23  31        -0.0000001786
      0   4  31  14         0.0000001768
      4   0  14  31         0.0000001768
      2   3   8  32         0.0000001749
      3   2  32   8         0.0000001749
      0   4  43  28         0.0000001723
      4   0  28  43         0.0000001723
      2   6   8  42         0.0000001712
      6   2  42   8         0.0000001712
      0   6  43  32         0.0000001669
      6   0  32  43         0.0000001669
      1   4  43   6         0.0000001625
      4   1   6  43         0.0000001625
      0   5  43  16        -0.0000001535
      5   0  16  43        -0.0000001535
      1   5  11  18        -0.0000001480
      5   1  18  11        -0.0000001480
      0   4  13  28        -0.0000001434
      4   0  28  13        -0.0000001434
      0   6  42   7         0.0000001347
      6   0   7  42         0.0000001347
      0   4  29  28         0.0000001332
      4   0  28  29         0.0000001332
      1   4  28  42         0.0000001323
      4   1  42  28         0.0000001323
      1   4  42  10        -0.0000001219
      4   1  10  42        -0.0000001219
      2   3  18  42        -0.0000001194
      3   2  42  18        -0.0000001194
      2   5  40  42        -0.0000001071
      5   2  42  40        -0.0000001071
      0   5  18   4        -0.0000001028
      5   0   4  18        -0.0000001028
      0   7  43  14         0.0000001014
      7   0  14  43         0.0000001014
      0   5  28  39         0.0000001011
      5   0  39  28         0.0000001011
      1   6  31  22        -0.0000001010
      6   1  22  31        -0.0000001010
      0   6  35  26        -0.0000000998
      6   0  26  35        -0.0000000998
      0   4  43   8        -0.0000000996
      4   0   8  43        -0.0000000996
      0   3  20  13        -0.0000000950
      3   0  13  20        -0.0000000950
      1   4  40  28        -0.0000000903
      4   1  28  40        -0.0000000903
      3   7  41  39         0.0000000883
      7   3  39  41         0.0000000883
      1   3  20  15        -0.0000000874
      3   1  15  20        -0.0000000874
      1   4   2   8        -0.0000000797
      4   1   8   2        -0.0000000797
      0   7  27  35        -0.0000000767
      7   0  35  27        -0.0000000767
      4   5  43  28         0.0000000637
      5   4  28  43         0.0000000637
      0   6  23  15         0.0000000622
      6   0  15  23         0.0000000622
      0   4  11   9         0.0000000597
      4   0   9  11         0.0000000597
      0   7  43   6        -0.0000000493
      7   0   6  43        -0.0000000493
      0   5  42  20        -0.0000000491
      5   0  20  42        -0.0000000491
      0   5  42  24         0.0000000468
      5   0  24  42         0.0000000468
      0   6  43  27        -0.0000000312
      6   0  27  43        -0.0000000312
      0   4  28  43         0.0000000258
      4   0  43  28         0.0000000258

    SCF energy       (wfn)                    =  -78.037869166966374
    Reference energy (file100)                =  -78.037869166966317

    Opposite-spin MP2 correlation energy      =   -0.244145222605612
    Same-spin MP2 correlation energy          =   -0.060379065840704
    MP2 correlation energy                    =   -0.304524288446316
      * MP2 total energy                      =  -78.342393455412633

    Opposite-spin CCSD correlation energy     =   -0.280811414548224
    Same-spin CCSD correlation energy         =   -0.054932039955701
    CCSD correlation energy                   =   -0.335743454503924
      * CCSD total energy                     =  -78.373612621470244


*** tstop() called on Berts-MacBook-Pro.local at Wed Dec  6 21:36:43 2017
Module time:
	user time   =     147.73 seconds =       2.46 minutes
	system time =       5.02 seconds =       0.08 minutes
	total time  =        153 seconds =       2.55 minutes
Total time:
	user time   =     204.86 seconds =       3.41 minutes
	system time =       6.24 seconds =       0.10 minutes
	total time  =        212 seconds =       3.53 minutes

*** Psi4 exiting successfully. Buy a developer a beer!
