
    -----------------------------------------------------------------------
          Psi4: An Open-Source Ab Initio Electronic Structure Package
                               Psi4 1.1 release

                         Git: Rev {HEAD} add49b9 


    R. M. Parrish, L. A. Burns, D. G. A. Smith, A. C. Simmonett,
    A. E. DePrince III, E. G. Hohenstein, U. Bozkaya, A. Yu. Sokolov,
    R. Di Remigio, R. M. Richard, J. F. Gonthier, A. M. James,
    H. R. McAlexander, A. Kumar, M. Saitow, X. Wang, B. P. Pritchard,
    P. Verma, H. F. Schaefer III, K. Patkowski, R. A. King, E. F. Valeev,
    F. A. Evangelista, J. M. Turney, T. D. Crawford, and C. D. Sherrill,
    J. Chem. Theory Comput. in press (2017).
    (doi: 10.1021/acs.jctc.7b00174)

    -----------------------------------------------------------------------


    Psi4 started on: Wednesday, 06 December 2017 09:26PM

    Process ID:  11918
    PSIDATADIR: /anaconda3/share/psi4
    Memory:     500.0 MiB
    Threads:    1
    
  ==> Input File <==

--------------------------------------------------------------------------
"""This is a template for psi4 input format."""
import numpy
import sys

from openfermion.config import *
from openfermion.ops._interaction_tensor import (one_body_basis_change,
                                              two_body_basis_change)
from openfermion.hamiltonians import MolecularData
from numpy import array

sys.path.append('/Users/wadejong/Desktop/Quantum-Computing/OpenFermion/OpenFermion-Psi4/openfermionpsi4')
from _psi4_conversion_functions import *

# Set number of threads in PSI4
set_num_threads(8)

# Set memory that job can use in megabytes.
memory 8000 mb

# Initialize molecular data.
_description = 'ethylene_0.23562'
if _description == 'None':
    _description = None
molecule = MolecularData([['C', array([ 0.      ,  0.      ,  0.673055])], ['C', array([ 0.      ,  0.      , -0.673055])], ['H', array([ 0.      ,  0.934981,  1.246807])], ['H', array([ 0.      , -0.934981,  1.246807])], ['H', array([ 0.21826698, -0.9091474 , -1.246807  ])], ['H', array([-0.21826698,  0.9091474 , -1.246807  ])]],
                         'DZP',
                         1,
                         0,
                         _description,
                          filename='/Users/wadejong/Desktop/QCQCSiddiqi/8_Qubit_Simulation/data/H4-C2_DZP_singlet_ethylene_0.23562')

# Set molecular geometry and symmetry.
molecule mol {
C 0.0 0.0 0.673055
C 0.0 0.0 -0.673055
H 0.0 0.934981 1.246807
H 0.0 -0.934981 1.246807
H 0.21826697974335826 -0.90914740054334 -1.246807
H -0.21826697974335826 0.90914740054334 -1.246807
symmetry c1
}
mol.set_multiplicity(1)
mol.set_molecular_charge(0)

# Set reference and guess.
if molecule.multiplicity == 1:
    set reference rhf
    set guess sad
    set sad_frac_occ true
else:
    set reference rohf
    set guess sad
    set sad_frac_occ true

# Set global parameters of calculation.
set globals {
    basis DZP
    freeze_core false
    fail_on_maxiter true
    df_scf_guess false
    guess sad
    sad_frac_occ true
    opdm false
    tpdm false
    soscf true
    scf_type pk
    diis true
    maxiter 1e6
    num_amps_print 1e6
    r_convergence 1e-7
    d_convergence 1e-7
    e_convergence 1e-7
    ints_tolerance EQUALITY_TOLERANCE
    damping_percentage 0
}

# Run self-consistent field (SCF) calculation.
if True:
    try:

        hf_energy, hf_wavefunction = energy('scf', return_wfn=True)
        scf_wfn = hf_wavefunction
        if True:
            print('Hartree-Fock energy for {} ({} electrons) is {}.'.format(
                molecule.name, molecule.n_electrons, hf_energy))
    except:
        if True:
            print('WARNING: SCF calculation failed.')
        else:
            raise
    else:
        # Get orbitals and Fock matrix.
        molecule.hf_energy = hf_energy
        molecule.nuclear_repulsion = mol.nuclear_repulsion_energy()
        molecule.canonical_orbitals = numpy.asarray(hf_wavefunction.Ca())
        molecule.n_orbitals = molecule.canonical_orbitals.shape[0]
        molecule.n_qubits = 2 * molecule.n_orbitals
        molecule.orbital_energies = numpy.asarray(hf_wavefunction.epsilon_a())
        molecule.fock_matrix = numpy.asarray(hf_wavefunction.Fa())

        # Get integrals using MintsHelper.
        mints = MintsHelper(hf_wavefunction.basisset())
        molecule.one_body_integrals = one_body_basis_change(
            numpy.asarray(mints.ao_kinetic()), molecule.canonical_orbitals)
        molecule.one_body_integrals += one_body_basis_change(
            numpy.asarray(mints.ao_potential()), molecule.canonical_orbitals)
        two_body_integrals = numpy.asarray(mints.ao_eri())
        two_body_integrals.reshape((molecule.n_orbitals, molecule.n_orbitals,
                                    molecule.n_orbitals, molecule.n_orbitals))
        two_body_integrals = numpy.einsum('psqr', two_body_integrals)
        two_body_integrals = two_body_basis_change(
            two_body_integrals, molecule.canonical_orbitals)
        molecule.two_body_integrals = two_body_integrals
        molecule.save()


# Perform MP2 energy calculation if there are at least two electrons.
if True:
    try:
        assert molecule.n_electrons > 1
        mp2_energy = energy('mp2',ref_wfn=scf_wfn)
        if True:
            print('MP2 energy for {} ({} electrons) is {}.'.format(
                molecule.name, molecule.n_electrons, mp2_energy))
    except:
        if True:
            print('WARNING: MP2 calculation failed.')
        else:
            raise
    else:
        molecule.mp2_energy = mp2_energy
        molecule.save()


# Perform configuration interaction singles and doubles (CISD) calculation.
if True:
    set qc_module detci
    try:
        cisd_energy, cisd_wavefunction = energy('cisd', ref_wfn=scf_wfn, return_wfn=True)
        if True:
            print('CISD energy for {} ({} electrons) is {}.'.format(
                molecule.name, molecule.n_electrons, cisd_energy))
    except:
        if True:
            print('WARNING: CISD calculation failed.')
        else:
            raise
    else:
        # For the functions below, "a" and "b" refer to "up and "down" spins.
        molecule.cisd_energy = cisd_energy

        # Get 1-RDM from CISD calculation.
        """cisd_one_rdm_a = numpy.array(cisd_wavefunction.get_opdm(
            0, 0, 'A', True)).reshape(molecule.n_orbitals, molecule.n_orbitals)
        cisd_one_rdm_b = numpy.array(cisd_wavefunction.get_opdm(
            0, 0, 'B', True)).reshape(molecule.n_orbitals, molecule.n_orbitals)

        # Get 2-RDM from CISD calculation.
        cisd_two_rdm_aa = numpy.array(cisd_wavefunction.get_tpdm(
            'AA', False)).reshape(molecule.n_orbitals, molecule.n_orbitals,
                                  molecule.n_orbitals, molecule.n_orbitals)
        cisd_two_rdm_ab = numpy.array(cisd_wavefunction.get_tpdm(
            'AB', False)).reshape(molecule.n_orbitals, molecule.n_orbitals,
                                  molecule.n_orbitals, molecule.n_orbitals)
        cisd_two_rdm_bb = numpy.array(cisd_wavefunction.get_tpdm(
            'BB', False)).reshape(molecule.n_orbitals, molecule.n_orbitals,
                                  molecule.n_orbitals, molecule.n_orbitals)

        # Get overall RDMs.
        cisd_one_rdm, cisd_two_rdm = unpack_spatial_rdm(
            cisd_one_rdm_a, cisd_one_rdm_b, cisd_two_rdm_aa,
            cisd_two_rdm_ab, cisd_two_rdm_bb)

        # Store 1-RDM in molecule file, 2-RDM separately in other file.
        molecule.cisd_one_rdm = cisd_one_rdm
        molecule.cisd_two_rdm = cisd_two_rdm
        molecule.save()"""


# Perform exact diagonalization.
if False:
    set qc_module detci
    try:
        fci_energy, fci_wavefunction = energy('fci', ref_wfn=scf_wfn, return_wfn=True)
        if True:
            print('FCI energy for {} ({} electrons) is {}.'.format(
                molecule.name, molecule.n_electrons, fci_energy))
    except:
        if True:
            print('WARNING: FCI calculation failed.')
        else:
            raise
    else:
        # For the functions below, "a" and "b" refer to "up and "down" spins.
        molecule.fci_energy = fci_energy

        # Get 1-RDM from FCI calculation.
        """fci_one_rdm_a = numpy.array(fci_wavefunction.get_opdm(
            0, 0, 'A', True)).reshape(molecule.n_orbitals, molecule.n_orbitals)
        fci_one_rdm_b = numpy.array(fci_wavefunction.get_opdm(
            0, 0, 'B', True)).reshape(molecule.n_orbitals, molecule.n_orbitals)

        # Get 2-RDM from FCI calculation.
        fci_two_rdm_aa = numpy.array(fci_wavefunction.get_tpdm(
            'AA', False)).reshape(molecule.n_orbitals, molecule.n_orbitals,
                                  molecule.n_orbitals, molecule.n_orbitals)
        fci_two_rdm_ab = numpy.array(fci_wavefunction.get_tpdm(
            'AB', False)).reshape(molecule.n_orbitals, molecule.n_orbitals,
                                  molecule.n_orbitals, molecule.n_orbitals)
        fci_two_rdm_bb = numpy.array(fci_wavefunction.get_tpdm(
            'BB', False)).reshape(molecule.n_orbitals, molecule.n_orbitals,
                                  molecule.n_orbitals, molecule.n_orbitals)

        # Get overall RDMs.
        fci_one_rdm, fci_two_rdm = unpack_spatial_rdm(
            fci_one_rdm_a, fci_one_rdm_b,
            fci_two_rdm_aa, fci_two_rdm_ab, fci_two_rdm_bb)

        # Store 1-RDM in molecule file, 2-RDM separately in other file.
        molecule.fci_one_rdm = fci_one_rdm
        molecule.fci_two_rdm = fci_two_rdm
        molecule.save()"""


# Perform coupled cluster singles and doubles (CCSD) calculation.
if True:
    set qc_module ccenergy
    try:
        ccsd_energy = energy('ccsd',ref_wfn=scf_wfn)
        if True:
            print('CCSD energy for {} ({} electrons) is {}.'.format(
                molecule.name, molecule.n_electrons, ccsd_energy))
    except:
        if True:
            print('WARNING: CCSD calculation failed.')
        else:
            raise
    else:
        molecule.ccsd_energy = ccsd_energy

        # Merge CC amplitudes into molecule by parsing
        psi_filename = outfile_name()
        ccsd_amplitudes = parse_psi4_ccsd_amplitudes(
            2 * molecule.n_orbitals,
            molecule.get_n_alpha_electrons(),
            molecule.get_n_beta_electrons(),
            psi_filename)
        molecule.ccsd_amplitudes = ccsd_amplitudes
        molecule.save()
--------------------------------------------------------------------------
  Python driver attempted to set threads to 8.
  Psi4 was compiled without OpenMP, setting threads to 1.

  Memory set to   7.451 GiB by Python driver.

*** tstart() called on Berts-MacBook-Pro.local
*** at Wed Dec  6 21:26:05 2017

   => Loading Basis Set <=

    Name: DZP
    Role: ORBITAL
    Keyword: BASIS
    atoms 1-2 entry C          line    73 file /anaconda3/share/psi4/basis/dzp.gbs 
    atoms 3-6 entry H          line    16 file /anaconda3/share/psi4/basis/dzp.gbs 


         ---------------------------------------------------------
                                   SCF
            by Justin Turney, Rob Parrish, and Andy Simmonett
                              RHF Reference
                        1 Threads,   7629 MiB Core
         ---------------------------------------------------------

  ==> Geometry <==

    Molecular point group: c1
    Full point group: D2

    Geometry (in Angstrom), charge = 0, multiplicity = 1:

       Center              X                  Y                   Z               Mass       
    ------------   -----------------  -----------------  -----------------  -----------------
           C          0.000000000000     0.000000000000     0.673055000000    12.000000000000
           C          0.000000000000     0.000000000000    -0.673055000000    12.000000000000
           H          0.109895233413     0.928500138952     1.246807000000     1.007825032070
           H         -0.109895233413    -0.928500138952     1.246807000000     1.007825032070
           H          0.109895233413    -0.928500138952    -1.246807000000     1.007825032070
           H         -0.109895233413     0.928500138952    -1.246807000000     1.007825032070

  Running in c1 symmetry.

  Rotational constants: A =      4.78350  B =      0.98081  C =      0.81776 [cm^-1]
  Rotational constants: A = 143405.72603  B =  29403.82430  C =  24515.97308 [MHz]
  Nuclear repulsion =   33.006133005779290

  Charge       = 0
  Multiplicity = 1
  Electrons    = 16
  Nalpha       = 8
  Nbeta        = 8

  ==> Algorithm <==

  SCF Algorithm Type is PK.
  DIIS enabled.
  MOM disabled.
  Fractional occupation disabled.
  Guess Type is SAD.
  Energy threshold   = 1.00e-07
  Density threshold  = 1.00e-07
  Integral threshold = 0.00e+00

  ==> Primary Basis <==

  Basis Set: DZP
    Blend: DZP
    Number of shells: 26
    Number of basis function: 52
    Number of Cartesian functions: 52
    Spherical Harmonics?: false
    Max angular momentum: 2

  ==> Pre-Iterations <==

   -------------------------------------------------------
    Irrep   Nso     Nmo     Nalpha   Nbeta   Ndocc  Nsocc
   -------------------------------------------------------
     A         52      52       0       0       0       0
   -------------------------------------------------------
    Total      52      52       8       8       8       0
   -------------------------------------------------------

  ==> Integral Setup <==

  Using in-core PK algorithm.
   Calculation information:
      Number of atoms:                   6
      Number of AO shells:              26
      Number of primitives:             50
      Number of atomic orbitals:        52
      Number of basis functions:        52

      Integral cutoff                 1.00e-12
      Number of threads:                 1

  Performing in-core PK
  Using 1900262 doubles for integral storage.
  We computed 61760 shell quartets total.
  Whereas there are 61776 unique shell quartets.
  ==> DiskJK: Disk-Based J/K Matrices <==

    J tasked:                  Yes
    K tasked:                  Yes
    wK tasked:                  No
    Memory (MB):              5722
    Schwarz Cutoff:          1E-12

    OpenMP threads:              1
  Minimum eigenvalue in the overlap matrix is 4.5652213737E-03.
  Using Symmetric Orthogonalization.

  SCF Guess: Superposition of Atomic Densities via on-the-fly atomic UHF.

  ==> Iterations <==

                        Total Energy        Delta E     RMS |[F,P]|

   @RHF iter   0:   -69.16285611721362   -6.91629e+01   1.01508e-01 
   @RHF iter   1:   -74.35381720443631   -5.19096e+00   3.98916e-02 
   @RHF iter   2:   -77.22744858666366   -2.87363e+00   2.37243e-02 DIIS/DAMP
   @RHF iter   3:   -78.03398365542239   -8.06535e-01   2.33122e-03 DIIS/DAMP
   @RHF iter   4:   -78.04446865202772   -1.04850e-02   3.86162e-04 SOSCF, nmicro = 4/DAMP
   @RHF iter   5:   -78.04493560697736   -4.66955e-04   1.86997e-06 SOSCF, nmicro = 4/DAMP
   @RHF iter   6:   -78.04493561435861   -7.38125e-09   2.81394e-09 SOSCF, conv/DAMP

  ==> Post-Iterations <==

    Orbital Energies (a.u.)
    -----------------------

    Doubly Occupied:                                                      

       1A    -11.244937     2A    -11.243379     3A     -1.026967  
       4A     -0.787914     5A     -0.635003     6A     -0.582090  
       7A     -0.507048     8A     -0.367416  

    Virtual:                                                              

       9A      0.143892    10A      0.257590    11A      0.288702  
      12A      0.360061    13A      0.391667    14A      0.413009  
      15A      0.444249    16A      0.473407    17A      0.486201  
      18A      0.611261    19A      0.660514    20A      0.665384  
      21A      0.825186    22A      1.028119    23A      1.197125  
      24A      1.202958    25A      1.321669    26A      1.536357  
      27A      1.562978    28A      1.577076    29A      1.664858  
      30A      1.928406    31A      2.065660    32A      2.071542  
      33A      2.075327    34A      2.155308    35A      2.217745  
      36A      2.423928    37A      2.477052    38A      2.527068  
      39A      2.615720    40A      2.781946    41A      2.809338  
      42A      2.922248    43A      2.958844    44A      3.198477  
      45A      3.325975    46A      3.496367    47A      3.606153  
      48A      3.900727    49A      4.211420    50A      4.549492  
      51A     27.625355    52A     27.663322  

    Final Occupation by Irrep:
              A 
    DOCC [     8 ]

  Energy converged.

  @RHF Final Energy:   -78.04493561435861

   => Energetics <=

    Nuclear Repulsion Energy =             33.0061330057792901
    One-Electron Energy =                -169.3126280844350333
    Two-Electron Energy =                  58.2615594642971431
    DFT Exchange-Correlation Energy =       0.0000000000000000
    Empirical Dispersion Energy =           0.0000000000000000
    PCM Polarization Energy =               0.0000000000000000
    EFP Energy =                            0.0000000000000000
    Total Energy =                        -78.0449356143586215



Properties will be evaluated at   0.000000,   0.000000,   0.000000 Bohr

Properties computed using the SCF density matrix

  Nuclear Dipole Moment: (a.u.)
     X:     0.0000      Y:     0.0000      Z:     0.0000

  Electronic Dipole Moment: (a.u.)
     X:     0.0000      Y:    -0.0000      Z:    -0.0000

  Dipole Moment: (a.u.)
     X:     0.0000      Y:    -0.0000      Z:    -0.0000     Total:     0.0000

  Dipole Moment: (Debye)
     X:     0.0000      Y:    -0.0000      Z:    -0.0000     Total:     0.0000


*** tstop() called on Berts-MacBook-Pro.local at Wed Dec  6 21:26:05 2017
Module time:
	user time   =       0.39 seconds =       0.01 minutes
	system time =       0.10 seconds =       0.00 minutes
	total time  =          0 seconds =       0.00 minutes
Total time:
	user time   =       0.39 seconds =       0.01 minutes
	system time =       0.10 seconds =       0.00 minutes
	total time  =          0 seconds =       0.00 minutes

*** tstart() called on Berts-MacBook-Pro.local
*** at Wed Dec  6 21:26:09 2017


  //>>>>>>>>>>>>>>>>>>>>>>>>>>>>>>>>>>>//
  //               DFMP2               //
  //<<<<<<<<<<<<<<<<<<<<<<<<<<<<<<<<<<<//

   => Loading Basis Set <=

    Name: (DZP AUX)
    Role: RIFIT
    Keyword: DF_BASIS_MP2
    atoms 1-2 entry C          line   269 file /anaconda3/share/psi4/basis/def2-qzvpp-ri.gbs 
    atoms 3-6 entry H          line    23 file /anaconda3/share/psi4/basis/def2-qzvpp-ri.gbs 

	 --------------------------------------------------------
	                          DF-MP2                         
	      2nd-Order Density-Fitted Moller-Plesset Theory     
	              RMP2 Wavefunction,   1 Threads             
	                                                         
	        Rob Parrish, Justin Turney, Andy Simmonett,      
	           Ed Hohenstein, and C. David Sherrill          
	 --------------------------------------------------------

   => Auxiliary Basis Set <=

  Basis Set: (DZP AUX)
    Blend: DEF2-QZVPP-RI
    Number of shells: 130
    Number of basis function: 506
    Number of Cartesian functions: 666
    Spherical Harmonics?: true
    Max angular momentum: 5

	 --------------------------------------------------------
	                 NBF =    52, NAUX =   506
	 --------------------------------------------------------
	   CLASS    FOCC     OCC    AOCC    AVIR     VIR    FVIR
	   PAIRS       0       8       8      44      44       0
	 --------------------------------------------------------

	-----------------------------------------------------------
	 ==================> DF-MP2 Energies <==================== 
	-----------------------------------------------------------
	 Reference Energy          =     -78.0449356143586073 [Eh]
	 Singles Energy            =      -0.0000000000000000 [Eh]
	 Same-Spin Energy          =      -0.0602726805495837 [Eh]
	 Opposite-Spin Energy      =      -0.2436731591158167 [Eh]
	 Correlation Energy        =      -0.3039458396654004 [Eh]
	 Total Energy              =     -78.3488814540240099 [Eh]
	-----------------------------------------------------------
	 ================> DF-SCS-MP2 Energies <================== 
	-----------------------------------------------------------
	 SCS Same-Spin Scale       =       0.3333333333333333 [-]
	 SCS Opposite-Spin Scale   =       1.2000000000000000 [-]
	 SCS Same-Spin Energy      =      -0.0200908935165279 [Eh]
	 SCS Opposite-Spin Energy  =      -0.2924077909389801 [Eh]
	 SCS Correlation Energy    =      -0.3124986844555079 [Eh]
	 SCS Total Energy          =     -78.3574342988141126 [Eh]
	-----------------------------------------------------------


*** tstop() called on Berts-MacBook-Pro.local at Wed Dec  6 21:26:10 2017
Module time:
	user time   =       0.28 seconds =       0.00 minutes
	system time =       0.05 seconds =       0.00 minutes
	total time  =          1 seconds =       0.02 minutes
Total time:
	user time   =       4.61 seconds =       0.08 minutes
	system time =       0.29 seconds =       0.00 minutes
	total time  =          5 seconds =       0.08 minutes
 MINTS: Wrapper to libmints.
   by Justin Turney

   Calculation information:
      Number of threads:                 1
      Number of atoms:                   6
      Number of AO shells:              26
      Number of SO shells:              26
      Number of primitives:             50
      Number of atomic orbitals:        52
      Number of basis functions:        52

      Number of irreps:                  1
      Integral cutoff                 0.00e+00
      Number of functions per irrep: [  52 ]

 OEINTS: Overlap, kinetic, potential, dipole, and quadrupole integrals
         stored in file 35.

      Computing two-electron integrals...done
      Computed 840868 non-zero two-electron integrals.
        Stored in file 33.


         ---------------------------------------------------------
                          Configuration Interaction
                            (a 'D E T C I' module)

                 C. David Sherrill, Daniel G. A. Smith, and
                              Matt L. Leininger
         ---------------------------------------------------------


   ==> Parameters <==

    EX LEVEL       =        2      H0 BLOCKSIZE  =     1000
    VAL EX LEVEL   =        0      H0 GUESS SIZE =     1000
    H0COUPLINGSIZE =        0      H0 COUPLING   =       NO
    MAXITER        =       24      NUM PRINT     =       20
    NUM ROOTS      =        1      ICORE         =        1
    PRINT LVL      =        1      FCI           =       NO
    R CONV         = 1.00e-07      MIXED         =      YES
    E CONV         = 1.00e-07      MIXED4        =      YES
    R4S            =       NO      REPL OTF      =       NO
    DIAG METHOD    =      SEM      FOLLOW ROOT   =        0
    PRECONDITIONER = DAVIDSON      UPDATE        = DAVIDSON
    S              =   0.0000      Ms0           =      YES
    GUESS VECTOR   =  H0BLOCK      OPENTYPE      =     NONE
    COLLAPSE SIZE  =        1      HD AVG        = EVANGELISTI
    MAX NUM VECS   =       25      REF SYM       =     AUTO
    IOPEN        =       NO

    EX ALLOW       =  1  1 
    STATE AVERAGE  =  0(1.00) 

   ==> CI Orbital and Space information <==

    RAS1 LVL      =        7      A RAS3 MAX    =        2
    RAS1 MIN      =       14      B RAS3 MAX    =        2
    A RAS1 LVL    =        7      RAS4 LVL      =       52
    A RAS1 MIN    =        6      A RAS4 MAX    =        0
    A RAS1 MAX    =        8      B RAS4 MAX    =        0
    B RAS1 LVL    =        7      RAS4 MAX      =        0
    B RAS1 MIN    =        6      A RAS34 MAX   =        2
    B RAS1 MAX    =        8      B RAS34 MAX   =        2
    RAS3 LVL      =        8      RAS34 MAX     =        2
    RAS3 MAX      =        2
   ------------------------------------
               Space    Total     A
   ------------------------------------
                 Nso       52    52
                 Nmo       52    52
               Ndocc        8     8
               Nsocc        0     0
   ------------------------------------
              CI Spaces
   ------------------------------------
        Dropped DOCC        0     0
                RAS1        8     8
                RAS2        0     0
                RAS3       44    44
                RAS4        0     0
      Active (total)       52    52
        Dropped UOCC        0     0
   ------------------------------------

   ==> Setting up CI strings <==

    There are 26841 alpha and 26841 beta strings
    The CI space requires 177585 (1.78E+05) determinants and 6 blocks

   ==> Transforming CI integrals <==

	Presorting SO-basis two-electron integrals.
	Sorting File: SO Ints (nn|nn) nbuckets = 1
	Transforming the one-electron integrals and constructing Fock matrices
	Starting first half-transformation.
	Sorting half-transformed integrals.
	First half integral transformation complete.
	Starting second half-transformation.
	Two-electron integral transformation complete.

   ==> Starting CI iterations <==

    H0 Block Eigenvalue = -78.08006669

    Simultaneous Expansion Method (Block Davidson Method)
    Using 1 initial trial vectors

     Iter   Root       Total Energy       Delta E      C RMS

   @CI  0:     0    -78.080066691436   -1.1109E+02   1.5407E+00  
   @CI  1:     0    -78.342346743540   -2.6228E-01   1.5198E-01  
   @CI  2:     0    -78.351765515921   -9.4188E-03   4.3281E-02  
   @CI  3:     0    -78.352370841335   -6.0533E-04   9.3296E-03  
   @CI  4:     0    -78.352402732895   -3.1892E-05   2.5489E-03  
   @CI  5:     0    -78.352404455060   -1.7222E-06   5.4894E-04  
   @CI  6:     0    -78.352404551186   -9.6125E-08   1.4634E-04  
   @CI  7:     0    -78.352404557036   -5.8509E-09   3.4499E-05  
   @CI  8:     0    -78.352404557425   -3.8825E-10   9.6328E-06  
   @CI  9:     0    -78.352404557455   -2.9956E-11   2.6537E-06  
   @CI 10:     0    -78.352404557457   -1.8616E-12   5.4753E-07  
    Warning: Norm of correction (root 0) is < 1.0E-13
   @CI 11:     0    -78.352404557457   -8.5265E-14   1.2882E-07  
    Warning: Norm of correction (root 0) is < 1.0E-13
   @CI 12:     0    -78.352404557457   1.4211E-14   2.6977E-08 c

   ==> Energetics <==

    SCF energy =            0.000000000000000
    Total CI energy =     -78.352404557456595

   ==> CISD root 0 information <==

    CISD Root 0 energy =   -78.352404557456595

   The 20 most important determinants:

    *   1    0.951369  (    0,    0)  1AX 2AX 3AX 4AX 5AX 6AX 7AX 8AX 
    *   2   -0.092179  (    1,    1)  1AX 2AX 3AX 4AX 5AX 6AX 7AX 9AX 
    *   3   -0.042524  (    1,   73)  1AX 2AX 3AX 4AX 5AX 6AX 7AX 9AA 18AB 
    *   4   -0.042524  (   73,    1)  1AX 2AX 3AX 4AX 5AX 6AX 7AX 9AB 18AA 
    *   5   -0.027897  (   73,   73)  1AX 2AX 3AX 4AX 5AX 6AX 7AX 18AX 
    *   6   -0.027004  (   99,   99)  1AX 2AX 3AX 4AX 5AX 7AX 8AX 21AX 
    *   7   -0.025376  (    1,   99)  1AX 2AX 3AX 4AX 5AX 6AA 7AX 8AB 9AA 21AB 
    *   8   -0.025376  (   99,    1)  1AX 2AX 3AX 4AX 5AX 6AB 7AX 8AA 9AB 21AA 
    *   9   -0.023068  (   65,   65)  1AX 2AX 3AX 4AX 5AX 6AX 7AX 17AX 
    *  10   -0.022479  (    0, 2202)  1AX 2AX 3AX 4AX 5AX 6AA 7AX 8AA 9AB 21AB 
    *  11   -0.022479  ( 2202,    0)  1AX 2AX 3AX 4AX 5AX 6AB 7AX 8AB 9AA 21AA 
    *  12   -0.021878  (   26,   26)  1AX 2AX 3AX 4AX 5AX 6AX 8AX 12AX 
    *  13   -0.020984  (   28,   28)  1AX 2AX 3AX 4AX 6AX 7AX 8AX 12AX 
    *  14   -0.019432  (   73,   99)  1AX 2AX 3AX 4AX 5AX 6AA 7AX 8AB 18AA 21AB 
    *  15   -0.019432  (   99,   73)  1AX 2AX 3AX 4AX 5AX 6AB 7AX 8AA 18AB 21AA 
    *  16    0.018483  (    0,   65)  1AX 2AX 3AX 4AX 5AX 6AX 7AX 8AA 17AB 
    *  17    0.018483  (   65,    0)  1AX 2AX 3AX 4AX 5AX 6AX 7AX 8AB 17AA 
    *  18   -0.018198  (    5,    5)  1AX 2AX 3AX 5AX 6AX 7AX 8AX 9AX 
    *  19   -0.017974  (   43,   43)  1AX 2AX 3AX 4AX 5AX 7AX 8AX 14AX 
    *  20   -0.016629  (   34,   34)  1AX 2AX 3AX 4AX 5AX 6AX 8AX 13AX 

		 "A good bug is a dead bug" 

			 - Starship Troopers

		 "I didn't write FORTRAN.  That's the problem."

			 - Edward Valeev
 MINTS: Wrapper to libmints.
   by Justin Turney

   Calculation information:
      Number of threads:                 1
      Number of atoms:                   6
      Number of AO shells:              26
      Number of SO shells:              26
      Number of primitives:             50
      Number of atomic orbitals:        52
      Number of basis functions:        52

      Number of irreps:                  1
      Integral cutoff                 0.00e+00
      Number of functions per irrep: [  52 ]

 OEINTS: Overlap, kinetic, potential, dipole, and quadrupole integrals
         stored in file 35.

      Computing two-electron integrals...done
      Computed 840868 non-zero two-electron integrals.
        Stored in file 33.


*** tstart() called on Berts-MacBook-Pro.local
*** at Wed Dec  6 21:27:02 2017


	Wfn Parameters:
	--------------------
	Wavefunction         = CCSD
	Number of irreps     = 1
	Number of MOs        = 52
	Number of active MOs = 52
	AO-Basis             = NONE
	Semicanonical        = false
	Reference            = RHF
	Print Level          = 1

	IRREP	# MOs	# FZDC	# DOCC	# SOCC	# VIRT	# FZVR
	-----	-----	------	------	------	------	------
	 A	   52	    0	    8	    0	    44	    0
	Transforming integrals...
	IWL integrals will be deleted.
	(OO|OO)...
	Presorting SO-basis two-electron integrals.
	Sorting File: SO Ints (nn|nn) nbuckets = 1
	Transforming the one-electron integrals and constructing Fock matrices
	Starting first half-transformation.
	Sorting half-transformed integrals.
	First half integral transformation complete.
	Starting second half-transformation.
	Two-electron integral transformation complete.
	(OO|OV)...
	Starting second half-transformation.
	Two-electron integral transformation complete.
	(OO|VV)...
	Starting second half-transformation.
	Two-electron integral transformation complete.
	(OV|OO)...
	Starting first half-transformation.
	Sorting half-transformed integrals.
	First half integral transformation complete.
	Starting second half-transformation.
	Two-electron integral transformation complete.
	(OV|OV)...
	Starting second half-transformation.
	Two-electron integral transformation complete.
	(OV|VV)...
	Starting second half-transformation.
	Two-electron integral transformation complete.
	(VV|OO)...
	Starting first half-transformation.
	Sorting half-transformed integrals.
	First half integral transformation complete.
	Starting second half-transformation.
	Two-electron integral transformation complete.
	(VV|OV)...
	Starting second half-transformation.
	Two-electron integral transformation complete.
	(VV|VV)...
	Starting second half-transformation.
	Two-electron integral transformation complete.
	Frozen core energy     =      0.00000000000000

	Size of irrep 0 of <ab|cd> integrals:      3.748 (MW) /     29.985 (MB)
	Total:                                     3.748 (MW) /     29.985 (MB)

	Size of irrep 0 of <ia|bc> integrals:      0.681 (MW) /      5.452 (MB)
	Total:                                     0.681 (MW) /      5.452 (MB)

	Size of irrep 0 of tijab amplitudes:       0.124 (MW) /      0.991 (MB)
	Total:                                     0.124 (MW) /      0.991 (MB)

	Nuclear Rep. energy          =     33.00613300577929
	SCF energy                   =    -78.04493561435861
	One-electron energy          =   -169.31262817455487
	Two-electron energy          =     58.26155955441706
	Reference energy             =    -78.04493561435852

*** tstop() called on Berts-MacBook-Pro.local at Wed Dec  6 21:27:02 2017
Module time:
	user time   =       0.28 seconds =       0.00 minutes
	system time =       0.32 seconds =       0.01 minutes
	total time  =          0 seconds =       0.00 minutes
Total time:
	user time   =      56.42 seconds =       0.94 minutes
	system time =       1.14 seconds =       0.02 minutes
	total time  =         57 seconds =       0.95 minutes

*** tstart() called on Berts-MacBook-Pro.local
*** at Wed Dec  6 21:27:02 2017

            **************************
            *                        *
            *        CCENERGY        *
            *                        *
            **************************

    Nuclear Rep. energy (wfn)     =   33.006133005779290
    SCF energy          (wfn)     =  -78.044935614358607
    Reference energy    (file100) =  -78.044935614358522

    Input parameters:
    -----------------
    Wave function   =     CCSD
    Reference wfn   =     RHF
    Brueckner       =     No
    Memory (Mbytes) =     8000.0
    Maxiter         =   1000000
    R_Convergence   =     1.0e-07
    E_Convergence   =     1.0e-07
    Restart         =     Yes
    DIIS            =     Yes
    AO Basis        =     NONE
    ABCD            =     NEW
    Cache Level     =     2
    Cache Type      =     LOW
    Print Level     =     1
    Num. of threads =     1
    # Amps to Print =     1000000
    Print MP2 Amps? =     No
    Analyze T2 Amps =     No
    Print Pair Ener =     No
    Local CC        =     No
    SCS-MP2         =     False
    SCSN-MP2        =     False
    SCS-CCSD        =     False

MP2 correlation energy -0.3039533888002089
                Solving CC Amplitude Equations
                ------------------------------
  Iter             Energy              RMS        T1Diag      D1Diag    New D1Diag    D2Diag
  ----     ---------------------    ---------   ----------  ----------  ----------   --------
     0        -0.303953388800209    0.000e+00    0.000000    0.000000    0.000000    0.157093
     1        -0.323893918654452    5.289e-02    0.006609    0.023231    0.023231    0.172572
     2        -0.333687768641476    2.171e-02    0.008114    0.029336    0.029336    0.190017
     3        -0.334856793163169    7.336e-03    0.009149    0.033501    0.033501    0.196993
     4        -0.334912573432790    2.377e-03    0.009293    0.034244    0.034244    0.199814
     5        -0.334931470735736    4.676e-04    0.009301    0.034300    0.034300    0.200207
     6        -0.334931285509565    1.121e-04    0.009298    0.034294    0.034294    0.200233
     7        -0.334931165890283    2.758e-05    0.009297    0.034291    0.034291    0.200239
     8        -0.334931118639850    9.138e-06    0.009296    0.034290    0.034290    0.200239
     9        -0.334930995756450    2.963e-06    0.009296    0.034289    0.034289    0.200239
    10        -0.334931067505960    8.371e-07    0.009296    0.034289    0.034289    0.200239
    11        -0.334931073452756    2.090e-07    0.009296    0.034290    0.034290    0.200239
    12        -0.334931079689201    5.319e-08    0.009296    0.034290    0.034290    0.200239

    Iterations converged.


    Largest TIA Amplitudes:
              7   8         0.0308906955
              7  19         0.0107461850
              7   7         0.0064089749
              4   3         0.0059070863
              7  10         0.0057175804
              5  21         0.0046838137
              3  13         0.0044507002
              7  28         0.0038329880
              5   5         0.0034976922
              6  34         0.0034581370
              4  23        -0.0031819845
              4  14         0.0029911131
              2  24         0.0029519706
              6  10         0.0028234908
              2   2        -0.0027931783
              2  40         0.0026550943
              3  25         0.0026200552
              6   8         0.0024745210
              7  18         0.0022927058
              5  33        -0.0020940311
              6   7         0.0019871463
              3  41         0.0018439410
              4  37         0.0018214718
              3  30        -0.0017843338
              6  22        -0.0017404714
              3  29        -0.0016630261
              2  21         0.0016356939
              3  35         0.0015110447
              2  11         0.0015065113
              2   5         0.0014789607
              4  27         0.0014740885
              5   2        -0.0014351939
              5  36        -0.0013282917
              5  15        -0.0012664982
              3  38         0.0012536258
              2  36         0.0011326193
              3   4         0.0009307223
              6  19         0.0009263748
              3  12         0.0008777942
              5  20         0.0008234728
              6  18         0.0008075533
              3   1        -0.0007873498
              4   0        -0.0007786935
              3  16         0.0007629818
              2  15         0.0007362442
              5  11        -0.0007168222
              7  34        -0.0007057862
              1  13        -0.0005493277
              4   6         0.0005376655
              2  33        -0.0005338138
              4  31         0.0005190139
              5  40         0.0005158779
              6  39         0.0005152054
              4   9        -0.0004987552
              7  22         0.0004784515
              0  40        -0.0004615183
              2  32        -0.0004581235
              5  24         0.0004570828
              1  41        -0.0003668707
              0  11        -0.0003374390
              1   1        -0.0003282724
              0  15        -0.0002905704
              1  12        -0.0002737444
              7  39         0.0002477972
              0   2        -0.0002396755
              1  35        -0.0002209601
              6  28         0.0002158375
              5  32        -0.0001896204
              1   4        -0.0001865347
              1  38        -0.0001755183
              0  36        -0.0001550466
              0   5        -0.0001360453
              1  25        -0.0001293786
              2  42         0.0001229865
              0  21        -0.0000985925
              1  43         0.0000975064
              0  42         0.0000968429
              3  43         0.0000907916
              1  16        -0.0000826349
              1  29        -0.0000745096
              4  26        -0.0000738830
              1  30        -0.0000557151
              0  24        -0.0000434325
              0  33        -0.0000375450
              5  42         0.0000187843
              3  17         0.0000115017
              1  17        -0.0000077776
              2  20         0.0000020861
              0  20        -0.0000015480

    Largest TIjAb Amplitudes:
      7   7   0   0        -0.1298480072
      7   7   0   9        -0.0562765549
      7   7   9   0        -0.0562765549
      7   7   9   9        -0.0333636444
      5   5  12  12        -0.0310409859
      5   7  12   0        -0.0293840469
      7   5   0  12        -0.0293840469
      6   6   3   3        -0.0276044243
      7   7   8   8        -0.0266466474
      4   4   3   3        -0.0254035559
      5   7  12   9        -0.0224756748
      7   5   9  12        -0.0224756748
      5   5   5   5        -0.0215496957
      3   3   0   0        -0.0213494312
      6   6   4   4        -0.0203819004
      4   6   3  10         0.0192143573
      6   4  10   3         0.0192143573
      7   7  11  11        -0.0186126151
      3   7   2   0        -0.0181122340
      7   3   0   2        -0.0181122340
      5   7   5   8         0.0180117669
      7   5   8   5         0.0180117669
      5   5   3   3        -0.0176278661
      2   7  12   0        -0.0173619276
      7   2   0  12        -0.0173619276
      4   6   2   4        -0.0173579622
      6   4   4   2        -0.0173579622
      6   6   7   7        -0.0171890431
      4   4   2   2        -0.0166986322
      6   7   7   8        -0.0165134647
      7   6   8   7        -0.0165134647
      2   7   1   0        -0.0161335774
      7   2   0   1        -0.0161335774
      4   5   3   5         0.0159075960
      5   4   5   3         0.0159075960
      4   4   6   6        -0.0159005714
      4   7   6   8        -0.0157699586
      7   4   8   6        -0.0157699586
      5   6   3   4         0.0155351745
      6   5   4   3         0.0155351745
      6   7   6   0        -0.0154074414
      7   6   0   6        -0.0154074414
      3   7   0   2        -0.0152653075
      7   3   2   0        -0.0152653075
      4   6   6   7        -0.0152645317
      6   4   7   6        -0.0152645317
      6   7   0   0        -0.0151391639
      7   6   0   0        -0.0151391639
      6   6  10  10        -0.0150930424
      2   7   0  12        -0.0150221444
      7   2  12   0        -0.0150221444
      2   2  12  12        -0.0148849065
      5   6   5   7         0.0141798247
      6   5   7   5         0.0141798247
      4   6  10   3         0.0140666690
      6   4   3  10         0.0140666690
      6   6   2   2        -0.0139876422
      4   7   3   8        -0.0138499793
      7   4   8   3        -0.0138499793
      4   6   3   7        -0.0138257605
      6   4   7   3        -0.0138257605
      2   7   1   9        -0.0136735800
      7   2   9   1        -0.0136735800
      2   7  12   9        -0.0136510099
      7   2   9  12        -0.0136510099
      3   5   1   5         0.0136198654
      5   3   5   1         0.0136198654
      5   6  12   6        -0.0134857701
      6   5   6  12        -0.0134857701
      6   7   6   9        -0.0134705706
      7   6   9   6        -0.0134705706
      5   5  19  19        -0.0133105191
      4   7   7   9        -0.0132532501
      7   4   9   7        -0.0132532501
      3   7   1   8        -0.0132504370
      7   3   8   1        -0.0132504370
      2   7  13   9        -0.0131144850
      7   2   9  13        -0.0131144850
      4   7   7   0        -0.0131011420
      7   4   0   7        -0.0131011420
      5   6   5  10        -0.0130993021
      6   5  10   5        -0.0130993021
      3   5   0  19         0.0128529484
      5   3  19   0         0.0128529484
      6   6  15  15        -0.0126075879
      3   5   2  12        -0.0125412223
      5   3  12   2        -0.0125412223
      3   3  12  12        -0.0124222058
      4   5   7  12        -0.0123810581
      5   4  12   7        -0.0123810581
      6   6   7  10         0.0123415484
      6   6  10   7         0.0123415484
      4   6   4   2        -0.0122314125
      6   4   2   4        -0.0122314125
      4   6   3  18         0.0121152874
      6   4  18   3         0.0121152874
      3   7   0  11         0.0120911262
      7   3  11   0         0.0120911262
      2   7   0   4        -0.0120820990
      7   2   4   0        -0.0120820990
      3   6   1   7        -0.0120790490
      6   3   7   1        -0.0120790490
      3   6   0  20         0.0120661046
      6   3  20   0         0.0120661046
      3   3   2   2        -0.0119829133
      3   4   1   3        -0.0119719675
      4   3   3   1        -0.0119719675
      4   5   6   5         0.0119444057
      5   4   5   6         0.0119444057
      2   5  13  12        -0.0119407842
      5   2  12  13        -0.0119407842
      3   7   2   9        -0.0119365758
      7   3   9   2        -0.0119365758
      4   5   2   3         0.0119231845
      5   4   3   2         0.0119231845
      2   7   0   1        -0.0119214326
      7   2   1   0        -0.0119214326
      3   4   0  17         0.0119100297
      4   3  17   0         0.0119100297
      7   7  12  12        -0.0118461820
      6   6  16  16        -0.0117002088
      4   4   7   7        -0.0116811509
      6   6   6   6        -0.0115742012
      4   4  10  10        -0.0115263227
      2   7  13   0        -0.0114875940
      7   2   0  13        -0.0114875940
      3   3   1   1        -0.0114741238
      4   6   7   6        -0.0114501943
      6   4   6   7        -0.0114501943
      6   7  10   8         0.0114038793
      7   6   8  10         0.0114038793
      4   4   3  14        -0.0113202038
      4   4  14   3        -0.0113202038
      3   6   1  10         0.0113124123
      6   3  10   1         0.0113124123
      2   7  11   8        -0.0112363593
      7   2   8  11        -0.0112363593
      3   7   0   5        -0.0112228165
      7   3   5   0        -0.0112228165
      3   7   5   9        -0.0111423036
      7   3   9   5        -0.0111423036
      4   6  15   4        -0.0111047705
      6   4   4  15        -0.0111047705
      3   7  13   8        -0.0111036055
      7   3   8  13        -0.0111036055
      5   5   2   2        -0.0110295509
      4   4   4   4        -0.0110111611
      4   7  10   0         0.0109732981
      7   4   0  10         0.0109732981
      6   6  14  14        -0.0109598086
      4   7  10   9         0.0108487350
      7   4   9  10         0.0108487350
      5   5  14  14        -0.0108398846
      6   6   0   0        -0.0108352843
      6   6   3  14        -0.0108313279
      6   6  14   3        -0.0108313279
      3   3   4   4        -0.0107904124
      3   7   5   0        -0.0107883681
      7   3   0   5        -0.0107883681
      3   7   0  24        -0.0107037192
      7   3  24   0        -0.0107037192
      5   5   3  14        -0.0106648059
      5   5  14   3        -0.0106648059
      4   4  17  17        -0.0106629196
      3   3  15  15        -0.0105776654
      7   7  19  19        -0.0104961867
      6   6  20  20        -0.0104956310
      6   7   0   3        -0.0104750196
      7   6   3   0        -0.0104750196
      3   5   4   2         0.0104043180
      5   3   2   4         0.0104043180
      2   7   4   0        -0.0104040407
      7   2   0   4        -0.0104040407
      4   6  18   3         0.0103428560
      6   4   3  18         0.0103428560
      4   6  15  16        -0.0103187684
      6   4  16  15        -0.0103187684
      4   6  17  20        -0.0102872137
      6   4  20  17        -0.0102872137
      4   4  14  14        -0.0102297217
      2   2   3   3        -0.0101107950
      3   5   2   4         0.0100880726
      5   3   4   2         0.0100880726
      6   6   4  16        -0.0100864790
      6   6  16   4        -0.0100864790
      4   6   4  15        -0.0100608013
      6   4  15   4        -0.0100608013
      3   3   5   5        -0.0100545115
      4   6  16  15        -0.0099377498
      6   4  15  16        -0.0099377498
      5   6   3  16         0.0098675129
      6   5  16   3         0.0098675129
      2   2   0   0        -0.0098604199
      3   5  13   5         0.0098601025
      5   3   5  13         0.0098601025
      4   4  15  15        -0.0098086012
      2   5   1  12        -0.0097928741
      5   2  12   1        -0.0097928741
      4   5  15   3         0.0097511602
      5   4   3  15         0.0097511602
      6   6  18  18        -0.0096230808
      3   4  13   3        -0.0096002759
      4   3   3  13        -0.0096002759
      7   7  17  17        -0.0095537389
      5   5   0   0        -0.0095481591
      4   6  14  18         0.0094722815
      6   4  18  14         0.0094722815
      4   4   7  10         0.0094653565
      4   4  10   7         0.0094653565
      3   5  11  12        -0.0094613061
      5   3  12  11        -0.0094613061
      3   7   0  15        -0.0094571735
      7   3  15   0        -0.0094571735
      2   5  11   5         0.0094465848
      5   2   5  11         0.0094465848
      4   6   6  10         0.0094289745
      6   4  10   6         0.0094289745
      2   5  12  12        -0.0094053186
      5   2  12  12        -0.0094053186
      2   7   9  12        -0.0093781200
      7   2  12   9        -0.0093781200
      3   4   1   6        -0.0092693192
      4   3   6   1        -0.0092693192
      6   6   2  15        -0.0092648127
      6   6  15   2        -0.0092648127
      3   6   3   2        -0.0092587719
      6   3   2   3        -0.0092587719
      4   5  17  19        -0.0092042224
      5   4  19  17        -0.0092042224
      5   6  14  16         0.0091984838
      6   5  16  14         0.0091984838
      3   5  12   2        -0.0091616280
      5   3   2  12        -0.0091616280
      5   5   4   4        -0.0091551799
      3   3   0   9        -0.0090747350
      3   3   9   0        -0.0090747350
      3   3   2  15        -0.0090620887
      3   3  15   2        -0.0090620887
      6   6  17  17        -0.0090538296
      3   5   5  12        -0.0089938869
      5   3  12   5        -0.0089938869
      4   4   3   6        -0.0088789894
      4   4   6   3        -0.0088789894
      2   4  11   6        -0.0088390695
      4   2   6  11        -0.0088390695
      3   6   3  15        -0.0087738623
      6   3  15   3        -0.0087738623
      3   3   3   3        -0.0087626916
      5   7   0   4         0.0087418109
      7   5   4   0         0.0087418109
      5   7   4   0         0.0087220465
      7   5   0   4         0.0087220465
      2   2  13  13        -0.0087005284
      3   6  13   7        -0.0086087958
      6   3   7  13        -0.0086087958
      4   4  16  16        -0.0085909703
      3   6  13  10         0.0085641632
      6   3  10  13         0.0085641632
      4   4  20  20        -0.0085461371
      4   6  20  17        -0.0085010624
      6   4  17  20        -0.0085010624
      2   7   9   1        -0.0084795102
      7   2   1   9        -0.0084795102
      5   6   1   3         0.0084548782
      6   5   3   1         0.0084548782
      4   4   2  15        -0.0083681452
      4   4  15   2        -0.0083681452
      2   7   0  16        -0.0083523007
      7   2  16   0        -0.0083523007
      2   2  12  13        -0.0083195299
      2   2  13  12        -0.0083195299
      5   7   3  17         0.0083102061
      7   5  17   3         0.0083102061
      5   7  13   0        -0.0083039083
      7   5   0  13        -0.0083039083
      4   7   3  19         0.0083035488
      7   4  19   3         0.0083035488
      2   6   0  17         0.0082948415
      6   2  17   0         0.0082948415
      3   4   3   4        -0.0082760022
      4   3   4   3        -0.0082760022
      2   7   2   8        -0.0082689686
      7   2   8   2        -0.0082689686
      3   6   5   3        -0.0082568417
      6   3   3   5        -0.0082568417
      5   6  19  20        -0.0082327275
      6   5  20  19        -0.0082327275
      3   5   4  15         0.0082248362
      5   3  15   4         0.0082248362
      2   2   0   9        -0.0081922201
      2   2   9   0        -0.0081922201
      3   5  15   4         0.0081711668
      5   3   4  15         0.0081711668
      2   4   0  20         0.0081280529
      4   2  20   0         0.0081280529
      3   6  14  15        -0.0081196181
      6   3  15  14        -0.0081196181
      2   2  11  11        -0.0081091873
      2   6  11   7        -0.0080870393
      6   2   7  11        -0.0080870393
      5   5   4  12         0.0079938438
      5   5  12   4         0.0079938438
      3   7   9   2        -0.0079934638
      7   3   2   9        -0.0079934638
      2   2  19  19        -0.0079517217
      4   6  18  14         0.0079513740
      6   4  14  18         0.0079513740
      2   2   9   9        -0.0079367141
      3   7  15   0        -0.0079109839
      7   3   0  15        -0.0079109839
      6   6   1   1        -0.0078938004
      4   6   7   3        -0.0077898740
      6   4   3   7        -0.0077898740
      4   5  15  14         0.0077891711
      5   4  14  15         0.0077891711
      4   6  10   6         0.0077385508
      6   4   6  10         0.0077385508
      6   7   0   9        -0.0077364561
      7   6   9   0        -0.0077364561
      5   5   1   1        -0.0077131511
      2   4  13   7        -0.0077108262
      4   2   7  13        -0.0077108262
      3   4   5  10         0.0077032161
      4   3  10   5         0.0077032161
      4   4  18  18        -0.0076811518
      4   7   0  10         0.0076789080
      7   4  10   0         0.0076789080
      3   4  13   6        -0.0076534639
      4   3   6  13        -0.0076534639
      3   3   1  13        -0.0076377905
      3   3  13   1        -0.0076377905
      4   5   3  21         0.0076084544
      5   4  21   3         0.0076084544
      3   3  16  16        -0.0075986196
      5   5  15  15        -0.0075931410
      5   6  14   4         0.0075898364
      6   5   4  14         0.0075898364
      4   5  10  12         0.0075793037
      5   4  12  10         0.0075793037
      3   6  15   3        -0.0075771236
      6   3   3  15        -0.0075771236
      3   4   5   7        -0.0075714038
      4   3   7   5        -0.0075714038
      4   4  21  21        -0.0075260586
      3   6   4  10         0.0075163124
      6   3  10   4         0.0075163124
      3   3  13  13        -0.0075094924
      3   5   5   1         0.0075032166
      5   3   1   5         0.0075032166
      2   4  13  10         0.0074722415
      4   2  10  13         0.0074722415
      2   2   3  14        -0.0074577788
      2   2  14   3        -0.0074577788
      5   7  14  17         0.0074393733
      7   5  17  14         0.0074393733
      3   5   4   5         0.0074078362
      5   3   5   4         0.0074078362
      3   6   2  23        -0.0073813060
      6   3  23   2        -0.0073813060
      7   7  24  24        -0.0073588677
      2   6   3  12        -0.0073342548
      6   2  12   3        -0.0073342548
      3   6   2   6        -0.0073304977
      6   3   6   2        -0.0073304977
      5   6   4   3         0.0072815258
      6   5   3   4         0.0072815258
      6   6  10  18        -0.0072453990
      6   6  18  10        -0.0072453990
      7   7   1  12        -0.0072269605
      7   7  12   1        -0.0072269605
      3   7  12  19         0.0071965682
      7   3  19  12         0.0071965682
      6   7   9   0        -0.0071944495
      7   6   0   9        -0.0071944495
      2   4   1   7        -0.0071690928
      4   2   7   1        -0.0071690928
      2   4   2   6        -0.0071646776
      4   2   6   2        -0.0071646776
      2   2  14  14        -0.0071539393
      5   5   2  15        -0.0071530915
      5   5  15   2        -0.0071530915
      3   5  19   0         0.0071307802
      5   3   0  19         0.0071307802
      7   7   1   1        -0.0071235618
      2   3   2   4        -0.0071057965
      3   2   4   2        -0.0071057965
      3   5  15  16         0.0071010478
      5   3  16  15         0.0071010478
      7   7   5  11         0.0070985792
      7   7  11   5         0.0070985792
      3   3  19  19        -0.0070834345
      3   7  11   9        -0.0070514486
      7   3   9  11        -0.0070514486
      6   6  22  22        -0.0070319870
      3   6   5   6        -0.0070050966
      6   3   6   5        -0.0070050966
      2   6   3   1        -0.0070007936
      6   2   1   3        -0.0070007936
      5   6  18  15        -0.0069754479
      6   5  15  18        -0.0069754479
      3   6  20   0         0.0069476386
      6   3   0  20         0.0069476386
      2   6  13   6        -0.0069473047
      6   2   6  13        -0.0069473047
      3   5  16  15         0.0069371150
      5   3  15  16         0.0069371150
      5   5  11  11        -0.0069233511
      6   6  21  21        -0.0069091159
      3   3   2   5        -0.0068972402
      3   3   5   2        -0.0068972402
      3   4   4   3        -0.0068952618
      4   3   3   4        -0.0068952618
      2   4   1  10         0.0068755551
      4   2  10   1         0.0068755551
      4   6   2  16        -0.0068381889
      6   4  16   2        -0.0068381889
      3   7   4   8        -0.0068356516
      7   3   8   4        -0.0068356516
      3   7  15   9        -0.0067736812
      7   3   9  15        -0.0067736812
      2   4  12  10         0.0067717754
      4   2  10  12         0.0067717754
      2   5  12  13        -0.0067332165
      5   2  13  12        -0.0067332165
      2   7   4   9        -0.0067285141
      7   2   9   4        -0.0067285141
      2   5   2   5         0.0067255013
      5   2   5   2         0.0067255013
      3   3   4  16        -0.0066987983
      3   3  16   4        -0.0066987983
      3   6   4   7        -0.0066909151
      6   3   7   4        -0.0066909151
      3   4   4   6        -0.0066888538
      4   3   6   4        -0.0066888538
      3   3  20  20        -0.0066886686
      2   6  13   3        -0.0066693981
      6   2   3  13        -0.0066693981
      3   6  21   3        -0.0066525925
      6   3   3  21        -0.0066525925
      3   4  14  16        -0.0066151205
      4   3  16  14        -0.0066151205
      2   6   1   6        -0.0066114472
      6   2   6   1        -0.0066114472
      3   6  11   6        -0.0066042490
      6   3   6  11        -0.0066042490
      2   7   9  13        -0.0066027521
      7   2  13   9        -0.0066027521
      5   7  19  24         0.0065986883
      7   5  24  19         0.0065986883
      4   4   4  16        -0.0065555519
      4   4  16   4        -0.0065555519
      3   3   9   9        -0.0065147610
      3   4   2   7        -0.0064987640
      4   3   7   2        -0.0064987640
      3   6   3   5        -0.0064971186
      6   3   5   3        -0.0064971186
      3   5  15  12        -0.0064901309
      5   3  12  15        -0.0064901309
      2   4   3  21        -0.0064011542
      4   2  21   3        -0.0064011542
      3   5   9  19         0.0063967089
      5   3  19   9         0.0063967089
      3   6  10   1         0.0063783777
      6   3   1  10         0.0063783777
      3   3  14  14        -0.0063618203
      4   4  10  18        -0.0063582331
      4   4  18  10        -0.0063582331
      2   2   1  13        -0.0063197389
      2   2  13   1        -0.0063197389
      4   5  16  18        -0.0063161804
      5   4  18  16        -0.0063161804
      5   6  12  23        -0.0063104089
      6   5  23  12        -0.0063104089
      2   5   8  19         0.0063068518
      5   2  19   8         0.0063068518
      4   5   4  10        -0.0062829297
      5   4  10   4        -0.0062829297
      2   2   1  12        -0.0062728466
      2   2  12   1        -0.0062728466
      6   6   4  13        -0.0062710997
      6   6  13   4        -0.0062710997
      2   7   9   4        -0.0062647369
      7   2   4   9        -0.0062647369
      4   7  14  19         0.0062583865
      7   4  19  14         0.0062583865
      7   7   0  26        -0.0062522124
      7   7  26   0        -0.0062522124
      6   6  23  23        -0.0062451977
      6   7  23   0        -0.0062282267
      7   6   0  23        -0.0062282267
      3   3  10  10        -0.0062257696
      4   6  14  10         0.0062242798
      6   4  10  14         0.0062242798
      3   4  11   7        -0.0062029065
      4   3   7  11        -0.0062029065
      3   3  17  17        -0.0062023278
      2   6   3  13        -0.0062015411
      6   2  13   3        -0.0062015411
      5   6   2   7         0.0061954850
      6   5   7   2         0.0061954850
      2   6   2   7        -0.0061940305
      6   2   7   2        -0.0061940305
      3   6  18  16         0.0061795116
      6   3  16  18         0.0061795116
      3   3  11  11        -0.0061720785
      4   5  14  11        -0.0061716652
      5   4  11  14        -0.0061716652
      3   6  10   4         0.0061715349
      6   3   4  10         0.0061715349
      3   4  17   0         0.0061704514
      4   3   0  17         0.0061704514
      3   6   4  22        -0.0061654940
      6   3  22   4        -0.0061654940
      3   6   7   1        -0.0061449667
      6   3   1   7        -0.0061449667
      2   7   3  17         0.0061424088
      7   2  17   3         0.0061424088
      4   6  16  11         0.0061289493
      6   4  11  16         0.0061289493
      3   7   9   5        -0.0061196926
      7   3   5   9        -0.0061196926
      3   7   9  24        -0.0061103816
      7   3  24   9        -0.0061103816
      6   6  11  15         0.0061025865
      6   6  15  11         0.0061025865
      2   5   2   2         0.0060981417
      5   2   2   2         0.0060981417
      3   6  19  17         0.0060896093
      6   3  17  19         0.0060896093
      5   6  10   2        -0.0060884933
      6   5   2  10        -0.0060884933
      6   7   3   9        -0.0060883126
      7   6   9   3        -0.0060883126
      2   3   0  19        -0.0060879032
      3   2  19   0        -0.0060879032
      4   5   6   2         0.0060718512
      5   4   2   6         0.0060718512
      5   5   5  21        -0.0060657899
      5   5  21   5        -0.0060657899
      2   2  17  17        -0.0060167334
      5   5  21  21        -0.0060152607
      7   7   2   2        -0.0059561076
      2   5  12  25        -0.0059264352
      5   2  25  12        -0.0059264352
      5   7   9  12        -0.0059043608
      7   5  12   9        -0.0059043608
      2   2   1   1        -0.0058850565
      2   5   0  26        -0.0058762894
      5   2  26   0        -0.0058762894
      4   6  21  25         0.0058629711
      6   4  25  21         0.0058629711
      2   3   1   5        -0.0058577842
      3   2   5   1        -0.0058577842
      3   4   4  23        -0.0058461590
      4   3  23   4        -0.0058461590
      4   4   0   0        -0.0058456703
      5   6  25   3        -0.0058424091
      6   5   3  25        -0.0058424091
      6   6  11  11        -0.0058389833
      3   6  15  14        -0.0058377028
      6   3  14  15        -0.0058377028
      5   7  21  19        -0.0058083948
      7   5  19  21        -0.0058083948
      5   7  19   2         0.0058059955
      7   5   2  19         0.0058059955
      2   6  17   0         0.0057952920
      6   2   0  17         0.0057952920
      7   7   8  19         0.0057898608
      7   7  19   8         0.0057898608
      3   4  18  15         0.0057733631
      4   3  15  18         0.0057733631
      3   4   2  22        -0.0057654148
      4   3  22   2        -0.0057654148
      2   3   4   2        -0.0057607777
      3   2   2   4        -0.0057607777
      2   3   8   0        -0.0057575844
      3   2   0   8        -0.0057575844
      3   4   3  13        -0.0057543997
      4   3  13   3        -0.0057543997
      7   7   3   3        -0.0057529347
      3   4   2  10         0.0057504890
      4   3  10   2         0.0057504890
      4   6  11  16         0.0057470843
      6   4  16  11         0.0057470843
      2   5   3  27        -0.0057467567
      5   2  27   3        -0.0057467567
      3   6  12  22         0.0057400223
      6   3  22  12         0.0057400223
      7   7   5   5        -0.0057383421
      5   6   2  22         0.0057211838
      6   5  22   2         0.0057211838
      5   6  16   3         0.0057149936
      6   5   3  16         0.0057149936
      3   4  12   3        -0.0057124503
      4   3   3  12        -0.0057124503
      2   2   8   8        -0.0056982810
      2   3   8   9        -0.0056879351
      3   2   9   8        -0.0056879351
      2   4  12  18         0.0056826472
      4   2  18  12         0.0056826472
      2   3  17  20        -0.0056550356
      3   2  20  17        -0.0056550356
      3   3  18  18        -0.0056402215
      2   6  12   3        -0.0056307714
      6   2   3  12        -0.0056307714
      3   3   4  12         0.0056267824
      3   3  12   4         0.0056267824
      3   3   7   7        -0.0056242457
      2   3  15   4        -0.0056210595
      3   2   4  15        -0.0056210595
      5   6   4  23         0.0056164602
      6   5  23   4         0.0056164602
      2   7   0  13        -0.0056132503
      7   2  13   0        -0.0056132503
      4   5  23   2         0.0055718894
      5   4   2  23         0.0055718894
      3   7   9  15        -0.0055717149
      7   3  15   9        -0.0055717149
      2   5   4   4         0.0055644845
      5   2   4   4         0.0055644845
      3   4  12  14        -0.0055596882
      4   3  14  12        -0.0055596882
      4   6  16   2        -0.0055586498
      6   4   2  16        -0.0055586498
      2   5   5  11         0.0055571598
      5   2  11   5         0.0055571598
      3   5   2  16         0.0055529753
      5   3  16   2         0.0055529753
      5   6  16  14         0.0055416792
      6   5  14  16         0.0055416792
      6   6  25  25        -0.0055407353
      4   4   1   1        -0.0055339851
      2   3   3  10         0.0055328952
      3   2  10   3         0.0055328952
      3   5  12  24         0.0055247519
      5   3  24  12         0.0055247519
      2   5   3  14        -0.0055171938
      5   2  14   3        -0.0055171938
      3   4  19  20         0.0055123475
      4   3  20  19         0.0055123475
      4   7  17  24         0.0054986570
      7   4  24  17         0.0054986570
      3   6  15  23        -0.0054860308
      6   3  23  15        -0.0054860308
      4   6  23  22        -0.0054753260
      6   4  22  23        -0.0054753260
      2   5   0   0         0.0054735289
      5   2   0   0         0.0054735289
      6   7   9   3        -0.0054685523
      7   6   3   9        -0.0054685523
      5   5   4  16        -0.0054513446
      5   5  16   4        -0.0054513446
      2   6   1   3        -0.0054371487
      6   2   3   1        -0.0054371487
      7   7  13  13        -0.0054345934
      5   7   4   9         0.0054288184
      7   5   9   4         0.0054288184
      4   4  11  11        -0.0054187915
      3   6  16  18         0.0054132368
      6   3  18  16         0.0054132368
      4   7  17  11        -0.0054111174
      7   4  11  17        -0.0054111174
      4   5   2  14         0.0054045600
      5   4  14   2         0.0054045600
      3   6   2   3        -0.0054034001
      6   3   3   2        -0.0054034001
      3   5   3  10        -0.0053879737
      5   3  10   3        -0.0053879737
      6   6   5   5        -0.0053745222
      3   6  11  14         0.0053732686
      6   3  14  11         0.0053732686
      3   3   1   4        -0.0053674778
      3   3   4   1        -0.0053674778
      6   7   9   9        -0.0053461646
      7   6   9   9        -0.0053461646
      4   4  12  12        -0.0053389379
      2   4  12   7        -0.0053362549
      4   2   7  12        -0.0053362549
      3   6   3  21        -0.0053325617
      6   3  21   3        -0.0053325617
      4   6   2  13        -0.0053245613
      6   4  13   2        -0.0053245613
      3   5  12  11        -0.0053145874
      5   3  11  12        -0.0053145874
      5   7   2  19         0.0053142291
      7   5  19   2         0.0053142291
      5   7   0  16         0.0053111487
      7   5  16   0         0.0053111487
      2   7  12  26        -0.0053103421
      7   2  26  12        -0.0053103421
      4   4  23  23        -0.0052969183
      5   5  16  16        -0.0052914542
      3   4   9  17         0.0052895263
      4   3  17   9         0.0052895263
      2   3   4  15        -0.0052837500
      3   2  15   4        -0.0052837500
      5   6   0  17        -0.0052636399
      6   5  17   0        -0.0052636399
      4   6  21   1        -0.0052519029
      6   4   1  21        -0.0052519029
      3   3   0  26         0.0052500172
      3   3  26   0         0.0052500172
      5   7  25   9        -0.0052378055
      7   5   9  25        -0.0052378055
      3   3   4  13        -0.0052282266
      3   3  13   4        -0.0052282266
      3   6  18   4         0.0052215890
      6   3   4  18         0.0052215890
      4   4  22  22        -0.0052174152
      2   3  13   5        -0.0052170011
      3   2   5  13        -0.0052170011
      4   6  22  23        -0.0052133532
      6   4  23  22        -0.0052133532
      3   3   5  15        -0.0051898796
      3   3  15   5        -0.0051898796
      4   6  25  21         0.0051849329
      6   4  21  25         0.0051849329
      5   6  12   0        -0.0051818339
      6   5   0  12        -0.0051818339
      3   4   3   1        -0.0051689227
      4   3   1   3        -0.0051689227
      5   5  18  18        -0.0051653572
      3   5  16   2         0.0051621394
      5   3   2  16         0.0051621394
      5   6  26  17         0.0051620120
      6   5  17  26         0.0051620120
      3   6  10  13         0.0051581821
      6   3  13  10         0.0051581821
      6   6  13  13        -0.0051496561
      6   6  12  12        -0.0051320075
      5   6  10  15        -0.0051270331
      6   5  15  10        -0.0051270331
      2   2   5   5        -0.0051171231
      5   6   3  12        -0.0051130693
      6   5  12   3        -0.0051130693
      3   3   5  11        -0.0051124020
      3   3  11   5        -0.0051124020
      4   6   5   1        -0.0051107812
      6   4   1   5        -0.0051107812
      6   7   3   3         0.0051105812
      7   6   3   3         0.0051105812
      2   7  12  31        -0.0051042420
      7   2  31  12        -0.0051042420
      4   5   3  15         0.0051009054
      5   4  15   3         0.0051009054
      4   7  20  12         0.0051005309
      7   4  12  20         0.0051005309
      2   3  15  16        -0.0050936772
      3   2  16  15        -0.0050936772
      5   5  13  13        -0.0050854406
      3   5   5   4         0.0050821960
      5   3   4   5         0.0050821960
      4   5  20  26         0.0050598265
      5   4  26  20         0.0050598265
      3   3  22  22        -0.0050526702
      2   3  20  17        -0.0050359943
      3   2  17  20        -0.0050359943
      3   4   3  16        -0.0050348829
      4   3  16   3        -0.0050348829
      3   5  12  15        -0.0050311741
      5   3  15  12        -0.0050311741
      4   5  11  14        -0.0050301521
      5   4  14  11        -0.0050301521
      3   4  15  18         0.0050289046
      4   3  18  15         0.0050289046
      2   2  21  21        -0.0050273415
      3   3  23  23        -0.0050219092
      3   6  12  18         0.0050179425
      6   3  18  12         0.0050179425
      3   6  26  20        -0.0050149780
      6   3  20  26        -0.0050149780
      3   3  21  21        -0.0050098703
      2   4  20   0         0.0050086384
      4   2   0  20         0.0050086384
      4   6   1  21        -0.0050067478
      6   4  21   1        -0.0050067478
      2   7  25   0        -0.0050040941
      7   2   0  25        -0.0050040941
      4   6   1   5        -0.0050038837
      6   4   5   1        -0.0050038837
      2   3  11  13        -0.0049969378
      3   2  13  11        -0.0049969378
      3   4  21  10         0.0049946404
      4   3  10  21         0.0049946404
      5   7  21   8         0.0049882075
      7   5   8  21         0.0049882075
      5   6  21  10        -0.0049862083
      6   5  10  21        -0.0049862083
      2   5  25  12        -0.0049638408
      5   2  12  25        -0.0049638408
      5   5  24  24        -0.0049622676
      3   6  14  11         0.0049601483
      6   3  11  14         0.0049601483
      6   7  17  12         0.0049571176
      7   6  12  17         0.0049571176
      2   6   2  10         0.0049553842
      6   2  10   2         0.0049553842
      4   5   4  18        -0.0049530671
      5   4  18   4        -0.0049530671
      2   6   9  17         0.0049504855
      6   2  17   9         0.0049504855
      7   7   4  12        -0.0049251300
      7   7  12   4        -0.0049251300
      2   4  10   1         0.0049232529
      4   2   1  10         0.0049232529
      2   2   2   2        -0.0048974730
      3   3   6   6        -0.0048967174
      3   4  14   4        -0.0048956122
      4   3   4  14        -0.0048956122
      2   6  14  12        -0.0048938174
      6   2  12  14        -0.0048938174
      6   7  14   0         0.0048895417
      7   6   0  14         0.0048895417
      5   5   2   5        -0.0048865222
      5   5   5   2        -0.0048865222
      3   4  12  23         0.0048839651
      4   3  23  12         0.0048839651
      4   5  10   4        -0.0048820980
      5   4   4  10        -0.0048820980
      2   3   2   1        -0.0048810218
      3   2   1   2        -0.0048810218
      3   4  10   5         0.0048739036
      4   3   5  10         0.0048739036
      7   7   4   4        -0.0048650037
      5   7  19  11        -0.0048510254
      7   5  11  19        -0.0048510254
      3   4  16  14        -0.0048405275
      4   3  14  16        -0.0048405275
      5   5  23  23        -0.0048366736
      4   4  13  13        -0.0048314121
      7   7   0   3        -0.0048245027
      7   7   3   0        -0.0048245027
      4   5  10  25         0.0048186536
      5   4  25  10         0.0048186536
      6   7  20  24         0.0048119747
      7   6  24  20         0.0048119747
      3   4  10   2         0.0047916179
      4   3   2  10         0.0047916179
      2   5  15  15         0.0047892192
      5   2  15  15         0.0047892192
      2   2   6   6        -0.0047859116
      3   5  14  18        -0.0047813934
      5   3  18  14        -0.0047813934
      5   5  12  25        -0.0047809176
      5   5  25  12        -0.0047809176
      3   4  10  21         0.0047798390
      4   3  21  10         0.0047798390
      2   5  12  35        -0.0047758061
      5   2  35  12        -0.0047758061
      2   3  16  15        -0.0047664997
      3   2  15  16        -0.0047664997
      2   7  15   8        -0.0047643797
      7   2   8  15        -0.0047643797
      6   7   4  17        -0.0047510803
      7   6  17   4        -0.0047510803
      3   4  15  10         0.0047476362
      4   3  10  15         0.0047476362
      6   7  20  11        -0.0047360009
      7   6  11  20        -0.0047360009
      6   6   2   5        -0.0047359917
      6   6   5   2        -0.0047359917
      5   6  11  18         0.0047266793
      6   5  18  11         0.0047266793
      5   6   2  10        -0.0047232472
      6   5  10   2        -0.0047232472
      3   6   6  11        -0.0047125038
      6   3  11   6        -0.0047125038
      2   3   2  13        -0.0047101009
      3   2  13   2        -0.0047101009
      5   6  15  18        -0.0047037287
      6   5  18  15        -0.0047037287
      2   2  24  24        -0.0046940641
      2   7   8  24        -0.0046840214
      7   2  24   8        -0.0046840214
      2   3  11   1        -0.0046738161
      3   2   1  11        -0.0046738161
      3   5  12  21         0.0046712798
      5   3  21  12         0.0046712798
      2   3  13   2        -0.0046706261
      3   2   2  13        -0.0046706261
      5   7  25   0        -0.0046682513
      7   5   0  25        -0.0046682513
      2   4   9  20         0.0046680789
      4   2  20   9         0.0046680789
      5   5   1  13        -0.0046578472
      5   5  13   1        -0.0046578472
      3   6   9  20         0.0046576028
      6   3  20   9         0.0046576028
      4   7  21  17         0.0046475381
      7   4  17  21         0.0046475381
      1   1  42  42        -0.0046473615
      0   0  42  42        -0.0046439280
      0   1  42  43        -0.0046408990
      1   0  43  42        -0.0046408990
      0   1  43  42        -0.0046408322
      1   0  42  43        -0.0046408322
      1   1  43  43        -0.0046385300
      0   0  43  43        -0.0046351818
      2   4  10  13         0.0046351072
      4   2  13  10         0.0046351072
      2   4   6  11        -0.0046329362
      4   2  11   6        -0.0046329362
      5   7  11  19         0.0046219993
      7   5  19  11         0.0046219993
      2   4   7   1        -0.0046168122
      4   2   1   7        -0.0046168122
      3   7   8   1        -0.0046160835
      7   3   1   8        -0.0046160835
      4   5  22  12        -0.0046096304
      5   4  12  22        -0.0046096304
      2   5   4  12        -0.0046088854
      5   2  12   4        -0.0046088854
      3   4  25   3         0.0046038716
      4   3   3  25         0.0046038716
      7   7   2  24        -0.0045967126
      7   7  24   2        -0.0045967126
      7   7   0   6         0.0045921565
      7   7   6   0         0.0045921565
      2   5  13  25        -0.0045883465
      5   2  25  13        -0.0045883465
      5   6  12  14         0.0045765583
      6   5  14  12         0.0045765583
      7   7  11  24         0.0045668561
      7   7  24  11         0.0045668561
      4   6  13   2        -0.0045619619
      6   4   2  13        -0.0045619619
      3   3   3  14        -0.0045534731
      3   3  14   3        -0.0045534731
      7   7  20  20        -0.0045410740
      3   7   8  13        -0.0045338860
      7   3  13   8        -0.0045338860
      3   7  11   0        -0.0045327616
      7   3   0  11        -0.0045327616
      3   4   6   1        -0.0045308017
      4   3   1   6        -0.0045308017
      2   6   2  22        -0.0045255830
      6   2  22   2        -0.0045255830
      5   6  10   5        -0.0045211180
      6   5   5  10        -0.0045211180
      2   3   9   8        -0.0045209573
      3   2   8   9        -0.0045209573
      2   7   0  25        -0.0045190699
      7   2  25   0        -0.0045190699
      2   3   0   8        -0.0045144181
      3   2   8   0        -0.0045144181
      6   6   1  13        -0.0045052031
      6   6  13   1        -0.0045052031
      2   5  12  29        -0.0044994058
      5   2  29  12        -0.0044994058
      6   6   3   6        -0.0044903237
      6   6   6   3        -0.0044903237
      6   7  12  17         0.0044839303
      7   6  17  12         0.0044839303
      2   5   6  14        -0.0044828004
      5   2  14   6        -0.0044828004
      4   5  18  16        -0.0044682531
      5   4  16  18        -0.0044682531
      7   7   9  26        -0.0044534666
      7   7  26   9        -0.0044534666
      4   5  20   0        -0.0044452494
      5   4   0  20        -0.0044452494
      4   4  25  25        -0.0044386518
      2   6  10  21         0.0044352584
      6   2  21  10         0.0044352584
      3   6  20  26        -0.0044324245
      6   3  26  20        -0.0044324245
      5   7   0  12        -0.0044228920
      7   5  12   0        -0.0044228920
      2   3   6   7        -0.0044189685
      3   2   7   6        -0.0044189685
      2   5  19   8         0.0043981646
      5   2   8  19         0.0043981646
      2   5   0  31        -0.0043944960
      5   2  31   0        -0.0043944960
      5   6  15  10        -0.0043929024
      6   5  10  15        -0.0043929024
      6   7  16  17        -0.0043903859
      7   6  17  16        -0.0043903859
      5   5  10  10        -0.0043882715
      4   6  21  12        -0.0043795242
      6   4  12  21        -0.0043795242
      5   6  13   3         0.0043789874
      6   5   3  13         0.0043789874
      5   6  18  11         0.0043758049
      6   5  11  18         0.0043758049
      2   5  15   5         0.0043741943
      5   2   5  15         0.0043741943
      4   6   2  12         0.0043715452
      6   4  12   2         0.0043715452
      2   7   9  16        -0.0043692273
      7   2  16   9        -0.0043692273
      5   5   2  24         0.0043641723
      5   5  24   2         0.0043641723
      6   6   6  23        -0.0043573212
      6   6  23   6        -0.0043573212
      3   6  23   2        -0.0043386044
      6   3   2  23        -0.0043386044
      3   4  22   2        -0.0043384302
      4   3   2  22        -0.0043384302
      3   5   1   2         0.0043297477
      5   3   2   1         0.0043297477
      2   4  13  18         0.0043263254
      4   2  18  13         0.0043263254
      2   3   1   2        -0.0043231095
      3   2   2   1        -0.0043231095
      3   5   7  14        -0.0043183214
      5   3  14   7        -0.0043183214
      5   5  12  13        -0.0043179520
      5   5  13  12        -0.0043179520
[...]
      3   0  14  34         0.0000008479
      1   7  21  27         0.0000008423
      7   1  27  21         0.0000008423
      0   7  22  42        -0.0000008387
      7   0  42  22        -0.0000008387
      0   4  42  27        -0.0000008242
      4   0  27  42        -0.0000008242
      0   1  17  24        -0.0000008208
      1   0  24  17        -0.0000008208
      0   1  18  26         0.0000008166
      1   0  26  18         0.0000008166
      0   7  42  19        -0.0000008133
      7   0  19  42        -0.0000008133
      0   2  32  33         0.0000008094
      2   0  33  32         0.0000008094
      2   3   0  34        -0.0000008041
      3   2  34   0        -0.0000008041
      2   5  40  42        -0.0000007907
      5   2  42  40        -0.0000007907
      1   7  16   7         0.0000007904
      7   1   7  16         0.0000007904
      2   7  22  40        -0.0000007889
      7   2  40  22        -0.0000007889
      0   2   4  17         0.0000007861
      2   0  17   4         0.0000007861
      1   2  17   5        -0.0000007855
      2   1   5  17        -0.0000007855
      1   5  17   2        -0.0000007852
      5   1   2  17        -0.0000007852
      1   6  43  10        -0.0000007785
      6   1  10  43        -0.0000007785
      0   1  24   4         0.0000007765
      1   0   4  24         0.0000007765
      2   7  22  42        -0.0000007765
      7   2  42  22        -0.0000007765
      1   4  20  34         0.0000007723
      4   1  34  20         0.0000007723
      6   7  36  42         0.0000007674
      7   6  42  36         0.0000007674
      0   5  17  38        -0.0000007674
      5   0  38  17        -0.0000007674
      2   3  32  43        -0.0000007670
      3   2  43  32        -0.0000007670
      0   7  22  15        -0.0000007667
      7   0  15  22        -0.0000007667
      0   3   0  22         0.0000007602
      3   0  22   0         0.0000007602
      1   4  17   6         0.0000007593
      4   1   6  17         0.0000007593
      1   7   4  10         0.0000007521
      7   1  10   4         0.0000007521
      4   7  15  43        -0.0000007408
      7   4  43  15        -0.0000007408
      0   6  42   8        -0.0000007406
      6   0   8  42        -0.0000007406
      1   6  42   9         0.0000007337
      6   1   9  42         0.0000007337
      1   4  43  26        -0.0000007197
      4   1  26  43        -0.0000007197
      5   6   9  43        -0.0000007170
      6   5  43   9        -0.0000007170
      0   1  24  17        -0.0000007146
      1   0  17  24        -0.0000007146
      6   7  43   1         0.0000007142
      7   6   1  43         0.0000007142
      2   7   7  42        -0.0000007126
      7   2  42   7        -0.0000007126
      0   7  43   3         0.0000007022
      7   0   3  43         0.0000007022
      0   5  13  17         0.0000006981
      5   0  17  13         0.0000006981
      2   6  42   8         0.0000006969
      6   2   8  42         0.0000006969
      4   6  42  17        -0.0000006956
      6   4  17  42        -0.0000006956
      1   4  29  26        -0.0000006877
      4   1  26  29        -0.0000006877
      2   7  14  43        -0.0000006824
      7   2  43  14        -0.0000006824
      2   4  43  28         0.0000006759
      4   2  28  43         0.0000006759
      0   1  15  29         0.0000006737
      1   0  29  15         0.0000006737
      0   7  11  22         0.0000006724
      7   0  22  11         0.0000006724
      1   7  43  34         0.0000006720
      7   1  34  43         0.0000006720
      2   7  43   6        -0.0000006599
      7   2   6  43        -0.0000006599
      0   2  22  28         0.0000006548
      2   0  28  22         0.0000006548
      3   6  43   8        -0.0000006511
      6   3   8  43        -0.0000006511
      0   2  20  36         0.0000006500
      2   0  36  20         0.0000006500
      0   3  28   6         0.0000006496
      3   0   6  28         0.0000006496
      1   2   5   1         0.0000006486
      2   1   1   5         0.0000006486
      1   4  40  28        -0.0000006458
      4   1  28  40        -0.0000006458
      0   0  17  17        -0.0000006453
      2   7  42  39        -0.0000006428
      7   2  39  42        -0.0000006428
      4   5  43   8         0.0000006420
      5   4   8  43         0.0000006420
      2   2  17  43         0.0000006324
      2   2  43  17         0.0000006324
      3   5  42  43        -0.0000006259
      5   3  43  42        -0.0000006259
      4   4  24  42         0.0000006201
      4   4  42  24         0.0000006201
      1   7  43   7        -0.0000006197
      7   1   7  43        -0.0000006197
      0   4  43  10        -0.0000006193
      4   0  10  43        -0.0000006193
      0   3   1  32        -0.0000006145
      3   0  32   1        -0.0000006145
      0   5  17  16         0.0000005998
      5   0  16  17         0.0000005998
      2   3   7  37        -0.0000005960
      3   2  37   7        -0.0000005960
      0   4  24  26         0.0000005951
      4   0  26  24         0.0000005951
      0   4   4  28        -0.0000005923
      4   0  28   4        -0.0000005923
      0   5  42  24        -0.0000005905
      5   0  24  42        -0.0000005905
      0   6  39  15         0.0000005846
      6   0  15  39         0.0000005846
      1   3  20  15        -0.0000005791
      3   1  15  20        -0.0000005791
      1   4  28  42         0.0000005774
      4   1  42  28         0.0000005774
      2   4  28  16        -0.0000005758
      4   2  16  28        -0.0000005758
      6   7   2  42         0.0000005749
      7   6  42   2         0.0000005749
      3   5  43  32        -0.0000005733
      5   3  32  43        -0.0000005733
      0   4  28  12        -0.0000005693
      4   0  12  28        -0.0000005693
      1   4  41   9        -0.0000005677
      4   1   9  41        -0.0000005677
      0   4  42  26        -0.0000005555
      4   0  26  42        -0.0000005555
      1   4  43  31        -0.0000005548
      4   1  31  43        -0.0000005548
      0   4  24  37         0.0000005505
      4   0  37  24         0.0000005505
      0   1  22   0        -0.0000005482
      1   0   0  22        -0.0000005482
      0   1  30   2        -0.0000005469
      1   0   2  30        -0.0000005469
      0   7  43   9         0.0000005457
      7   0   9  43         0.0000005457
      1   3  40  20        -0.0000005456
      3   1  20  40        -0.0000005456
      0   5  32  24        -0.0000005446
      5   0  24  32        -0.0000005446
      1   5  43  20        -0.0000005346
      5   1  20  43        -0.0000005346
      0   6  42  28        -0.0000005302
      6   0  28  42        -0.0000005302
      0   7  42  22        -0.0000005285
      7   0  22  42        -0.0000005285
      0   4  28  43         0.0000005230
      4   0  43  28         0.0000005230
      0   1  28   6        -0.0000005133
      1   0   6  28        -0.0000005133
      1   3   5  20         0.0000005072
      3   1  20   5         0.0000005072
      4   7  36   4         0.0000005056
      7   4   4  36         0.0000005056
      0   7  43  23         0.0000004983
      7   0  23  43         0.0000004983
      1   3  22  18         0.0000004963
      3   1  18  22         0.0000004963
      0   6  15  19         0.0000004953
      6   0  19  15         0.0000004953
      4   5  42   0         0.0000004925
      5   4   0  42         0.0000004925
      1   7  42  27        -0.0000004920
      7   1  27  42        -0.0000004920
      1   2   6  39         0.0000004903
      2   1  39   6         0.0000004903
      1   5  24  29         0.0000004893
      5   1  29  24         0.0000004893
      0   4  22  17        -0.0000004871
      4   0  17  22        -0.0000004871
      1   7  42   6        -0.0000004856
      7   1   6  42        -0.0000004856
      0   2   3  26        -0.0000004847
      2   0  26   3        -0.0000004847
      1   4  42  19        -0.0000004839
      4   1  19  42        -0.0000004839
      1   1  17  17        -0.0000004826
      4   7  43  24        -0.0000004817
      7   4  24  43        -0.0000004817
      3   5  17  42        -0.0000004799
      5   3  42  17        -0.0000004799
      1   2  14  28         0.0000004733
      2   1  28  14         0.0000004733
      1   4  13   0         0.0000004702
      4   1   0  13         0.0000004702
      3   7   7  43         0.0000004650
      7   3  43   7         0.0000004650
      1   5  17  11         0.0000004639
      5   1  11  17         0.0000004639
      0   1   6  28        -0.0000004622
      1   0  28   6        -0.0000004622
      2   4  33  37        -0.0000004614
      4   2  37  33        -0.0000004614
      1   6  19   4        -0.0000004562
      6   1   4  19        -0.0000004562
      1   5  42  17        -0.0000004531
      5   1  17  42        -0.0000004531
      3   3  33  40        -0.0000004440
      3   3  40  33        -0.0000004440
      0   7  19  11        -0.0000004433
      7   0  11  19        -0.0000004433
      0   5  17  13        -0.0000004375
      5   0  13  17        -0.0000004375
      0   5  17   4        -0.0000004358
      5   0   4  17        -0.0000004358
      0   6  43  14         0.0000004343
      6   0  14  43         0.0000004343
      1   7  32  31         0.0000004317
      7   1  31  32         0.0000004317
      0   5  41  17         0.0000004298
      5   0  17  41         0.0000004298
      0   2   0  14         0.0000004258
      2   0  14   0         0.0000004258
      0   6  38   9        -0.0000004233
      6   0   9  38        -0.0000004233
      7   7  36  42         0.0000004228
      7   7  42  36         0.0000004228
      2   5  22  28         0.0000004215
      5   2  28  22         0.0000004215
      1   4  28   2        -0.0000004095
      4   1   2  28        -0.0000004095
      1   4   8  21         0.0000003957
      4   1  21   8         0.0000003957
      0   6  42   7         0.0000003954
      6   0   7  42         0.0000003954
      1   7  33  14         0.0000003929
      7   1  14  33         0.0000003929
      0   2   9  37        -0.0000003925
      2   0  37   9        -0.0000003925
      1   4  24  28        -0.0000003918
      4   1  28  24        -0.0000003918
      5   7  24  10        -0.0000003915
      7   5  10  24        -0.0000003915
      2   3  43  20        -0.0000003886
      3   2  20  43        -0.0000003886
      0   4   2   9         0.0000003794
      4   0   9   2         0.0000003794
      0   3  31  22         0.0000003736
      3   0  22  31         0.0000003736
      4   7  41  42         0.0000003727
      7   4  42  41         0.0000003727
      0   2  34  22        -0.0000003721
      2   0  22  34        -0.0000003721
      1   4   1   9         0.0000003666
      4   1   9   1         0.0000003666
      4   6  17  42        -0.0000003617
      6   4  42  17        -0.0000003617
      0   6  18  32         0.0000003569
      6   0  32  18         0.0000003569
      0   0  20  20        -0.0000003553
      1   7  43   8         0.0000003538
      7   1   8  43         0.0000003538
      1   7  43  22         0.0000003521
      7   1  22  43         0.0000003521
      0   2   2  20         0.0000003498
      2   0  20   2         0.0000003498
      0   4  42   0        -0.0000003489
      4   0   0  42        -0.0000003489
      6   7  42   2         0.0000003464
      7   6   2  42         0.0000003464
      1   7  24  14        -0.0000003438
      7   1  14  24        -0.0000003438
      1   5  28   6         0.0000003376
      5   1   6  28         0.0000003376
      0   2   7  28         0.0000003346
      2   0  28   7         0.0000003346
      0   3  15  35         0.0000003323
      3   0  35  15         0.0000003323
      0   4  32  23        -0.0000003267
      4   0  23  32        -0.0000003267
      4   7  24  43         0.0000003251
      7   4  43  24         0.0000003251
      0   4   1  28        -0.0000003151
      4   0  28   1        -0.0000003151
      0   3  20  13        -0.0000003096
      3   0  13  20        -0.0000003096
      1   5  20  25         0.0000003037
      5   1  25  20         0.0000003037
      1   4  11  28         0.0000003037
      4   1  28  11         0.0000003037
      1   4  26  12        -0.0000003026
      4   1  12  26        -0.0000003026
      0   5  43  16        -0.0000002988
      5   0  16  43        -0.0000002988
      1   1  20  20        -0.0000002925
      0   5  43  17        -0.0000002917
      5   0  17  43        -0.0000002917
      0   6  43  26         0.0000002900
      6   0  26  43         0.0000002900
      2   4  42  26        -0.0000002892
      4   2  26  42        -0.0000002892
      1   4  42   8        -0.0000002741
      4   1   8  42        -0.0000002741
      4   5  43  28         0.0000002689
      5   4  28  43         0.0000002689
      0   6  43   6        -0.0000002657
      6   0   6  43        -0.0000002657
      0   7  42  39        -0.0000002632
      7   0  39  42        -0.0000002632
      6   6  20  42        -0.0000002608
      6   6  42  20        -0.0000002608
      2   6  14  43         0.0000002574
      6   2  43  14         0.0000002574
      4   5  28  43        -0.0000002574
      5   4  43  28        -0.0000002574
      2   7  42   7         0.0000002561
      7   2   7  42         0.0000002561
      1   5  21  17        -0.0000002505
      5   1  17  21        -0.0000002505
      0   7  27  35         0.0000002473
      7   0  35  27         0.0000002473
      3   6  23  32        -0.0000002454
      6   3  32  23        -0.0000002454
      1   4  43   6         0.0000002335
      4   1   6  43         0.0000002335
      0   1   0  22        -0.0000002300
      1   0  22   0        -0.0000002300
      1   5  17  36         0.0000002256
      5   1  36  17         0.0000002256
      2   6  43  26        -0.0000002222
      6   2  26  43        -0.0000002222
      1   7   9  36        -0.0000002222
      7   1  36   9        -0.0000002222
      0   7  23   4         0.0000002207
      7   0   4  23         0.0000002207
      0   4  43  19         0.0000002202
      4   0  19  43         0.0000002202
      5   7  42  22        -0.0000002112
      7   5  22  42        -0.0000002112
      4   7  43  21        -0.0000002100
      7   4  21  43        -0.0000002100
      0   6  43   9         0.0000002042
      6   0   9  43         0.0000002042
      1   4   5  28        -0.0000001990
      4   1  28   5        -0.0000001990
      1   7  24   3        -0.0000001969
      7   1   3  24        -0.0000001969
      0   7  21  39        -0.0000001926
      7   0  39  21        -0.0000001926
      0   5  42  36         0.0000001864
      5   0  36  42         0.0000001864
      0   2  11  32         0.0000001863
      2   0  32  11         0.0000001863
      1   4  36  28         0.0000001846
      4   1  28  36         0.0000001846
      0   6  43  31         0.0000001821
      6   0  31  43         0.0000001821
      2   3  18   9        -0.0000001790
      3   2   9  18        -0.0000001790
      2   4  42   9         0.0000001721
      4   2   9  42         0.0000001721
      3   5  42  17        -0.0000001678
      5   3  17  42        -0.0000001678
      1   4  21   8         0.0000001673
      4   1   8  21         0.0000001673
      0   3  31  34         0.0000001617
      3   0  34  31         0.0000001617
      1   3  20  21         0.0000001599
      3   1  21  20         0.0000001599
      2   3  17  42        -0.0000001536
      3   2  42  17        -0.0000001536
      5   6  19  42        -0.0000001523
      6   5  42  19        -0.0000001523
      0   5  35  16         0.0000001469
      5   0  16  35         0.0000001469
      0   4  42   9         0.0000001352
      4   0   9  42         0.0000001352
      0   6  20  22        -0.0000001308
      6   0  22  20        -0.0000001308
      2   7  43  14        -0.0000001305
      7   2  14  43        -0.0000001305
      0   2  14  26         0.0000001299
      2   0  26  14         0.0000001299
      0   6  43  27         0.0000001271
      6   0  27  43         0.0000001271
      4   6  43  32        -0.0000001249
      6   4  32  43        -0.0000001249
      3   4  28  42         0.0000001229
      4   3  42  28         0.0000001229
      0   2   1  16         0.0000001225
      2   0  16   1         0.0000001225
      0   6  32  34        -0.0000001214
      6   0  34  32        -0.0000001214
      1   4  43   9        -0.0000001200
      4   1   9  43        -0.0000001200
      0   5  42  20        -0.0000000889
      5   0  20  42        -0.0000000889
      6   7   1  43        -0.0000000825
      7   6  43   1        -0.0000000825
      0   4  43   8        -0.0000000813
      4   0   8  43        -0.0000000813
      1   4  42  10         0.0000000744
      4   1  10  42         0.0000000744
      0   1  26  18        -0.0000000703
      1   0  18  26        -0.0000000703
      0   4  43  28         0.0000000700
      4   0  28  43         0.0000000700
      4   5   0  42        -0.0000000699
      5   4  42   0        -0.0000000699
      4   7  24   4        -0.0000000695
      7   4   4  24        -0.0000000695
      0   7  43  14         0.0000000659
      7   0  14  43         0.0000000659
      5   5  38  43        -0.0000000579
      5   5  43  38        -0.0000000579
      1   6  43   8         0.0000000578
      6   1   8  43         0.0000000578
      0   5  17   1         0.0000000566
      5   0   1  17         0.0000000566
      1   3  17  12         0.0000000496
      3   1  12  17         0.0000000496
      5   7  42  10        -0.0000000424
      7   5  10  42        -0.0000000424
      1   5  11  17         0.0000000415
      5   1  17  11         0.0000000415
      0   6  20  39        -0.0000000402
      6   0  39  20        -0.0000000402
      1   4  17  37         0.0000000360
      4   1  37  17         0.0000000360
      1   4  42  28         0.0000000321
      4   1  28  42         0.0000000321
      0   7  43   6        -0.0000000300
      7   0   6  43        -0.0000000300
      0   3   1  20         0.0000000256
      3   0  20   1         0.0000000256
      4   5  35  28        -0.0000000251
      5   4  28  35        -0.0000000251
      1   2  22  31         0.0000000214
      2   1  31  22         0.0000000214
      0   6  19  15        -0.0000000213
      6   0  15  19        -0.0000000213
      0   3   0  39         0.0000000212
      3   0  39   0         0.0000000212
      0   4  11   9         0.0000000148
      4   0   9  11         0.0000000148
      3   6  43  28        -0.0000000107
      6   3  28  43        -0.0000000107
      1   4   2   8         0.0000000101
      4   1   8   2         0.0000000101

    SCF energy       (wfn)                    =  -78.044935614358607
    Reference energy (file100)                =  -78.044935614358522

    Opposite-spin MP2 correlation energy      =   -0.243682970675560
    Same-spin MP2 correlation energy          =   -0.060270418124649
    MP2 correlation energy                    =   -0.303953388800209
      * MP2 total energy                      =  -78.348889003158732

    Opposite-spin CCSD correlation energy     =   -0.280036518337727
    Same-spin CCSD correlation energy         =   -0.054894561351475
    CCSD correlation energy                   =   -0.334931079689201
      * CCSD total energy                     =  -78.379866694047720


*** tstop() called on Berts-MacBook-Pro.local at Wed Dec  6 21:29:34 2017
Module time:
	user time   =     148.38 seconds =       2.47 minutes
	system time =       3.19 seconds =       0.05 minutes
	total time  =        152 seconds =       2.53 minutes
Total time:
	user time   =     204.80 seconds =       3.41 minutes
	system time =       4.33 seconds =       0.07 minutes
	total time  =        209 seconds =       3.48 minutes

*** Psi4 exiting successfully. Buy a developer a beer!
