
    -----------------------------------------------------------------------
          Psi4: An Open-Source Ab Initio Electronic Structure Package
                               Psi4 1.1 release

                         Git: Rev {HEAD} add49b9 


    R. M. Parrish, L. A. Burns, D. G. A. Smith, A. C. Simmonett,
    A. E. DePrince III, E. G. Hohenstein, U. Bozkaya, A. Yu. Sokolov,
    R. Di Remigio, R. M. Richard, J. F. Gonthier, A. M. James,
    H. R. McAlexander, A. Kumar, M. Saitow, X. Wang, B. P. Pritchard,
    P. Verma, H. F. Schaefer III, K. Patkowski, R. A. King, E. F. Valeev,
    F. A. Evangelista, J. M. Turney, T. D. Crawford, and C. D. Sherrill,
    J. Chem. Theory Comput. in press (2017).
    (doi: 10.1021/acs.jctc.7b00174)

    -----------------------------------------------------------------------


    Psi4 started on: Wednesday, 06 December 2017 11:17PM

    Process ID:  12214
    PSIDATADIR: /anaconda3/share/psi4
    Memory:     500.0 MiB
    Threads:    1
    
  ==> Input File <==

--------------------------------------------------------------------------
"""This is a template for psi4 input format."""
import numpy
import sys

from openfermion.config import *
from openfermion.ops._interaction_tensor import (one_body_basis_change,
                                              two_body_basis_change)
from openfermion.hamiltonians import MolecularData
from numpy import array

sys.path.append('/Users/wadejong/Desktop/Quantum-Computing/OpenFermion/OpenFermion-Psi4/openfermionpsi4')
from _psi4_conversion_functions import *

# Set number of threads in PSI4
set_num_threads(8)

# Set memory that job can use in megabytes.
memory 8000 mb

# Initialize molecular data.
_description = 'ethylene_2.67035'
if _description == 'None':
    _description = None
molecule = MolecularData([['C', array([ 0.      ,  0.      ,  0.673055])], ['C', array([ 0.      ,  0.      , -0.673055])], ['H', array([ 0.      ,  0.934981,  1.246807])], ['H', array([ 0.      , -0.934981,  1.246807])], ['H', array([ 0.42447249,  0.83307417, -1.246807  ])], ['H', array([-0.42447249, -0.83307417, -1.246807  ])]],
                         'DZP',
                         1,
                         0,
                         _description,
                          filename='/Users/wadejong/Desktop/QCQCSiddiqi/8_Qubit_Simulation/data/H4-C2_DZP_singlet_ethylene_2.67035')

# Set molecular geometry and symmetry.
molecule mol {
C 0.0 0.0 0.673055
C 0.0 0.0 -0.673055
H 0.0 0.934981 1.246807
H 0.0 -0.934981 1.246807
H 0.42447249143698124 0.8330741709921643 -1.246807
H -0.42447249143698124 -0.8330741709921643 -1.246807
symmetry c1
}
mol.set_multiplicity(1)
mol.set_molecular_charge(0)

# Set reference and guess.
if molecule.multiplicity == 1:
    set reference rhf
    set guess sad
    set sad_frac_occ true
else:
    set reference rohf
    set guess sad
    set sad_frac_occ true

# Set global parameters of calculation.
set globals {
    basis DZP
    freeze_core false
    fail_on_maxiter true
    df_scf_guess false
    guess sad
    sad_frac_occ true
    opdm false
    tpdm false
    soscf true
    scf_type pk
    diis true
    maxiter 1e6
    num_amps_print 1e6
    r_convergence 1e-7
    d_convergence 1e-7
    e_convergence 1e-7
    ints_tolerance EQUALITY_TOLERANCE
    damping_percentage 0
}

# Run self-consistent field (SCF) calculation.
if True:
    try:

        hf_energy, hf_wavefunction = energy('scf', return_wfn=True)
        scf_wfn = hf_wavefunction
        if True:
            print('Hartree-Fock energy for {} ({} electrons) is {}.'.format(
                molecule.name, molecule.n_electrons, hf_energy))
    except:
        if True:
            print('WARNING: SCF calculation failed.')
        else:
            raise
    else:
        # Get orbitals and Fock matrix.
        molecule.hf_energy = hf_energy
        molecule.nuclear_repulsion = mol.nuclear_repulsion_energy()
        molecule.canonical_orbitals = numpy.asarray(hf_wavefunction.Ca())
        molecule.n_orbitals = molecule.canonical_orbitals.shape[0]
        molecule.n_qubits = 2 * molecule.n_orbitals
        molecule.orbital_energies = numpy.asarray(hf_wavefunction.epsilon_a())
        molecule.fock_matrix = numpy.asarray(hf_wavefunction.Fa())

        # Get integrals using MintsHelper.
        mints = MintsHelper(hf_wavefunction.basisset())
        molecule.one_body_integrals = one_body_basis_change(
            numpy.asarray(mints.ao_kinetic()), molecule.canonical_orbitals)
        molecule.one_body_integrals += one_body_basis_change(
            numpy.asarray(mints.ao_potential()), molecule.canonical_orbitals)
        two_body_integrals = numpy.asarray(mints.ao_eri())
        two_body_integrals.reshape((molecule.n_orbitals, molecule.n_orbitals,
                                    molecule.n_orbitals, molecule.n_orbitals))
        two_body_integrals = numpy.einsum('psqr', two_body_integrals)
        two_body_integrals = two_body_basis_change(
            two_body_integrals, molecule.canonical_orbitals)
        molecule.two_body_integrals = two_body_integrals
        molecule.save()


# Perform MP2 energy calculation if there are at least two electrons.
if True:
    try:
        assert molecule.n_electrons > 1
        mp2_energy = energy('mp2',ref_wfn=scf_wfn)
        if True:
            print('MP2 energy for {} ({} electrons) is {}.'.format(
                molecule.name, molecule.n_electrons, mp2_energy))
    except:
        if True:
            print('WARNING: MP2 calculation failed.')
        else:
            raise
    else:
        molecule.mp2_energy = mp2_energy
        molecule.save()


# Perform configuration interaction singles and doubles (CISD) calculation.
if True:
    set qc_module detci
    try:
        cisd_energy, cisd_wavefunction = energy('cisd', ref_wfn=scf_wfn, return_wfn=True)
        if True:
            print('CISD energy for {} ({} electrons) is {}.'.format(
                molecule.name, molecule.n_electrons, cisd_energy))
    except:
        if True:
            print('WARNING: CISD calculation failed.')
        else:
            raise
    else:
        # For the functions below, "a" and "b" refer to "up and "down" spins.
        molecule.cisd_energy = cisd_energy

        # Get 1-RDM from CISD calculation.
        """cisd_one_rdm_a = numpy.array(cisd_wavefunction.get_opdm(
            0, 0, 'A', True)).reshape(molecule.n_orbitals, molecule.n_orbitals)
        cisd_one_rdm_b = numpy.array(cisd_wavefunction.get_opdm(
            0, 0, 'B', True)).reshape(molecule.n_orbitals, molecule.n_orbitals)

        # Get 2-RDM from CISD calculation.
        cisd_two_rdm_aa = numpy.array(cisd_wavefunction.get_tpdm(
            'AA', False)).reshape(molecule.n_orbitals, molecule.n_orbitals,
                                  molecule.n_orbitals, molecule.n_orbitals)
        cisd_two_rdm_ab = numpy.array(cisd_wavefunction.get_tpdm(
            'AB', False)).reshape(molecule.n_orbitals, molecule.n_orbitals,
                                  molecule.n_orbitals, molecule.n_orbitals)
        cisd_two_rdm_bb = numpy.array(cisd_wavefunction.get_tpdm(
            'BB', False)).reshape(molecule.n_orbitals, molecule.n_orbitals,
                                  molecule.n_orbitals, molecule.n_orbitals)

        # Get overall RDMs.
        cisd_one_rdm, cisd_two_rdm = unpack_spatial_rdm(
            cisd_one_rdm_a, cisd_one_rdm_b, cisd_two_rdm_aa,
            cisd_two_rdm_ab, cisd_two_rdm_bb)

        # Store 1-RDM in molecule file, 2-RDM separately in other file.
        molecule.cisd_one_rdm = cisd_one_rdm
        molecule.cisd_two_rdm = cisd_two_rdm
        molecule.save()"""


# Perform exact diagonalization.
if False:
    set qc_module detci
    try:
        fci_energy, fci_wavefunction = energy('fci', ref_wfn=scf_wfn, return_wfn=True)
        if True:
            print('FCI energy for {} ({} electrons) is {}.'.format(
                molecule.name, molecule.n_electrons, fci_energy))
    except:
        if True:
            print('WARNING: FCI calculation failed.')
        else:
            raise
    else:
        # For the functions below, "a" and "b" refer to "up and "down" spins.
        molecule.fci_energy = fci_energy

        # Get 1-RDM from FCI calculation.
        """fci_one_rdm_a = numpy.array(fci_wavefunction.get_opdm(
            0, 0, 'A', True)).reshape(molecule.n_orbitals, molecule.n_orbitals)
        fci_one_rdm_b = numpy.array(fci_wavefunction.get_opdm(
            0, 0, 'B', True)).reshape(molecule.n_orbitals, molecule.n_orbitals)

        # Get 2-RDM from FCI calculation.
        fci_two_rdm_aa = numpy.array(fci_wavefunction.get_tpdm(
            'AA', False)).reshape(molecule.n_orbitals, molecule.n_orbitals,
                                  molecule.n_orbitals, molecule.n_orbitals)
        fci_two_rdm_ab = numpy.array(fci_wavefunction.get_tpdm(
            'AB', False)).reshape(molecule.n_orbitals, molecule.n_orbitals,
                                  molecule.n_orbitals, molecule.n_orbitals)
        fci_two_rdm_bb = numpy.array(fci_wavefunction.get_tpdm(
            'BB', False)).reshape(molecule.n_orbitals, molecule.n_orbitals,
                                  molecule.n_orbitals, molecule.n_orbitals)

        # Get overall RDMs.
        fci_one_rdm, fci_two_rdm = unpack_spatial_rdm(
            fci_one_rdm_a, fci_one_rdm_b,
            fci_two_rdm_aa, fci_two_rdm_ab, fci_two_rdm_bb)

        # Store 1-RDM in molecule file, 2-RDM separately in other file.
        molecule.fci_one_rdm = fci_one_rdm
        molecule.fci_two_rdm = fci_two_rdm
        molecule.save()"""


# Perform coupled cluster singles and doubles (CCSD) calculation.
if True:
    set qc_module ccenergy
    try:
        ccsd_energy = energy('ccsd',ref_wfn=scf_wfn)
        if True:
            print('CCSD energy for {} ({} electrons) is {}.'.format(
                molecule.name, molecule.n_electrons, ccsd_energy))
    except:
        if True:
            print('WARNING: CCSD calculation failed.')
        else:
            raise
    else:
        molecule.ccsd_energy = ccsd_energy

        # Merge CC amplitudes into molecule by parsing
        psi_filename = outfile_name()
        ccsd_amplitudes = parse_psi4_ccsd_amplitudes(
            2 * molecule.n_orbitals,
            molecule.get_n_alpha_electrons(),
            molecule.get_n_beta_electrons(),
            psi_filename)
        molecule.ccsd_amplitudes = ccsd_amplitudes
        molecule.save()
--------------------------------------------------------------------------
  Python driver attempted to set threads to 8.
  Psi4 was compiled without OpenMP, setting threads to 1.

  Memory set to   7.451 GiB by Python driver.

*** tstart() called on Berts-MacBook-Pro.local
*** at Wed Dec  6 23:17:29 2017

   => Loading Basis Set <=

    Name: DZP
    Role: ORBITAL
    Keyword: BASIS
    atoms 1-2 entry C          line    73 file /anaconda3/share/psi4/basis/dzp.gbs 
    atoms 3-6 entry H          line    16 file /anaconda3/share/psi4/basis/dzp.gbs 


         ---------------------------------------------------------
                                   SCF
            by Justin Turney, Rob Parrish, and Andy Simmonett
                              RHF Reference
                        1 Threads,   7629 MiB Core
         ---------------------------------------------------------

  ==> Geometry <==

    Molecular point group: c1
    Full point group: D2

    Geometry (in Angstrom), charge = 0, multiplicity = 1:

       Center              X                  Y                   Z               Mass       
    ------------   -----------------  -----------------  -----------------  -----------------
           C          0.000000000000     0.000000000000     0.673055000000    12.000000000000
           C          0.000000000000     0.000000000000    -0.673055000000    12.000000000000
           H         -0.218266979743     0.909147400543     1.246807000000     1.007825032070
           H          0.218266979743    -0.909147400543     1.246807000000     1.007825032070
           H          0.218266979743     0.909147400543    -1.246807000000     1.007825032070
           H         -0.218266979743    -0.909147400543    -1.246807000000     1.007825032070

  Running in c1 symmetry.

  Rotational constants: A =      4.78350  B =      0.97269  C =      0.82349 [cm^-1]
  Rotational constants: A = 143405.72603  B =  29160.58562  C =  24687.66973 [MHz]
  Nuclear repulsion =   33.003947049966506

  Charge       = 0
  Multiplicity = 1
  Electrons    = 16
  Nalpha       = 8
  Nbeta        = 8

  ==> Algorithm <==

  SCF Algorithm Type is PK.
  DIIS enabled.
  MOM disabled.
  Fractional occupation disabled.
  Guess Type is SAD.
  Energy threshold   = 1.00e-07
  Density threshold  = 1.00e-07
  Integral threshold = 0.00e+00

  ==> Primary Basis <==

  Basis Set: DZP
    Blend: DZP
    Number of shells: 26
    Number of basis function: 52
    Number of Cartesian functions: 52
    Spherical Harmonics?: false
    Max angular momentum: 2

  ==> Pre-Iterations <==

   -------------------------------------------------------
    Irrep   Nso     Nmo     Nalpha   Nbeta   Ndocc  Nsocc
   -------------------------------------------------------
     A         52      52       0       0       0       0
   -------------------------------------------------------
    Total      52      52       8       8       8       0
   -------------------------------------------------------

  ==> Integral Setup <==

  Using in-core PK algorithm.
   Calculation information:
      Number of atoms:                   6
      Number of AO shells:              26
      Number of primitives:             50
      Number of atomic orbitals:        52
      Number of basis functions:        52

      Integral cutoff                 1.00e-12
      Number of threads:                 1

  Performing in-core PK
  Using 1900262 doubles for integral storage.
  We computed 61760 shell quartets total.
  Whereas there are 61776 unique shell quartets.
  ==> DiskJK: Disk-Based J/K Matrices <==

    J tasked:                  Yes
    K tasked:                  Yes
    wK tasked:                  No
    Memory (MB):              5722
    Schwarz Cutoff:          1E-12

    OpenMP threads:              1
  Minimum eigenvalue in the overlap matrix is 5.8138107953E-03.
  Using Symmetric Orthogonalization.

  SCF Guess: Superposition of Atomic Densities via on-the-fly atomic UHF.

  ==> Iterations <==

                        Total Energy        Delta E     RMS |[F,P]|

   @RHF iter   0:   -69.16286289901277   -6.91629e+01   1.01501e-01 
   @RHF iter   1:   -74.32812281021965   -5.16526e+00   3.99607e-02 
   @RHF iter   2:   -77.20114767017975   -2.87302e+00   2.39118e-02 DIIS/DAMP
   @RHF iter   3:   -78.02169656310595   -8.20549e-01   2.36031e-03 DIIS/DAMP
   @RHF iter   4:   -78.03252498430626   -1.08284e-02   3.92840e-04 SOSCF, nmicro = 4/DAMP
   @RHF iter   5:   -78.03301973872925   -4.94754e-04   1.98244e-06 SOSCF, nmicro = 4/DAMP
   @RHF iter   6:   -78.03301974767471   -8.94546e-09   3.46173e-09 SOSCF, conv/DAMP

  ==> Post-Iterations <==

    Orbital Energies (a.u.)
    -----------------------

    Doubly Occupied:                                                      

       1A    -11.245357     2A    -11.243806     3A     -1.027357  
       4A     -0.788217     5A     -0.632283     6A     -0.582498  
       7A     -0.516597     8A     -0.355409  

    Virtual:                                                              

       9A      0.134433    10A      0.257541    11A      0.294347  
      12A      0.367406    13A      0.378552    14A      0.412879  
      15A      0.445403    16A      0.472901    17A      0.483973  
      18A      0.608288    19A      0.624154    20A      0.668990  
      21A      0.823771    22A      1.023053    23A      1.205130  
      24A      1.206893    25A      1.316124    26A      1.517311  
      27A      1.555314    28A      1.614406    29A      1.638265  
      30A      1.942931    31A      2.060344    32A      2.068342  
      33A      2.098318    34A      2.137050    35A      2.192712  
      36A      2.438664    37A      2.480821    38A      2.493177  
      39A      2.662782    40A      2.764140    41A      2.797686  
      42A      2.930307    43A      2.938284    44A      3.197722  
      45A      3.366144    46A      3.508111    47A      3.571639  
      48A      3.876926    49A      4.219056    50A      4.537367  
      51A     27.627800    52A     27.661341  

    Final Occupation by Irrep:
              A 
    DOCC [     8 ]

  Energy converged.

  @RHF Final Energy:   -78.03301974767471

   => Energetics <=

    Nuclear Repulsion Energy =             33.0039470499665057
    One-Electron Energy =                -169.2908844292723529
    Two-Electron Energy =                  58.2539176316311256
    DFT Exchange-Correlation Energy =       0.0000000000000000
    Empirical Dispersion Energy =           0.0000000000000000
    PCM Polarization Energy =               0.0000000000000000
    EFP Energy =                            0.0000000000000000
    Total Energy =                        -78.0330197476747145



Properties will be evaluated at   0.000000,   0.000000,   0.000000 Bohr

Properties computed using the SCF density matrix

  Nuclear Dipole Moment: (a.u.)
     X:     0.0000      Y:     0.0000      Z:     0.0000

  Electronic Dipole Moment: (a.u.)
     X:    -0.0000      Y:     0.0000      Z:     0.0000

  Dipole Moment: (a.u.)
     X:    -0.0000      Y:     0.0000      Z:     0.0000     Total:     0.0000

  Dipole Moment: (Debye)
     X:    -0.0000      Y:     0.0000      Z:     0.0000     Total:     0.0000


*** tstop() called on Berts-MacBook-Pro.local at Wed Dec  6 23:17:30 2017
Module time:
	user time   =       0.40 seconds =       0.01 minutes
	system time =       0.07 seconds =       0.00 minutes
	total time  =          1 seconds =       0.02 minutes
Total time:
	user time   =       0.40 seconds =       0.01 minutes
	system time =       0.07 seconds =       0.00 minutes
	total time  =          1 seconds =       0.02 minutes

*** tstart() called on Berts-MacBook-Pro.local
*** at Wed Dec  6 23:17:34 2017


  //>>>>>>>>>>>>>>>>>>>>>>>>>>>>>>>>>>>//
  //               DFMP2               //
  //<<<<<<<<<<<<<<<<<<<<<<<<<<<<<<<<<<<//

   => Loading Basis Set <=

    Name: (DZP AUX)
    Role: RIFIT
    Keyword: DF_BASIS_MP2
    atoms 1-2 entry C          line   269 file /anaconda3/share/psi4/basis/def2-qzvpp-ri.gbs 
    atoms 3-6 entry H          line    23 file /anaconda3/share/psi4/basis/def2-qzvpp-ri.gbs 

	 --------------------------------------------------------
	                          DF-MP2                         
	      2nd-Order Density-Fitted Moller-Plesset Theory     
	              RMP2 Wavefunction,   1 Threads             
	                                                         
	        Rob Parrish, Justin Turney, Andy Simmonett,      
	           Ed Hohenstein, and C. David Sherrill          
	 --------------------------------------------------------

   => Auxiliary Basis Set <=

  Basis Set: (DZP AUX)
    Blend: DEF2-QZVPP-RI
    Number of shells: 130
    Number of basis function: 506
    Number of Cartesian functions: 666
    Spherical Harmonics?: true
    Max angular momentum: 5

	 --------------------------------------------------------
	                 NBF =    52, NAUX =   506
	 --------------------------------------------------------
	   CLASS    FOCC     OCC    AOCC    AVIR     VIR    FVIR
	   PAIRS       0       8       8      44      44       0
	 --------------------------------------------------------

	-----------------------------------------------------------
	 ==================> DF-MP2 Energies <==================== 
	-----------------------------------------------------------
	 Reference Energy          =     -78.0330197476747145 [Eh]
	 Singles Energy            =      -0.0000000000000000 [Eh]
	 Same-Spin Energy          =      -0.0604507174164318 [Eh]
	 Opposite-Spin Energy      =      -0.2444454416042700 [Eh]
	 Correlation Energy        =      -0.3048961590207017 [Eh]
	 Total Energy              =     -78.3379159066954145 [Eh]
	-----------------------------------------------------------
	 ================> DF-SCS-MP2 Energies <================== 
	-----------------------------------------------------------
	 SCS Same-Spin Scale       =       0.3333333333333333 [-]
	 SCS Opposite-Spin Scale   =       1.2000000000000000 [-]
	 SCS Same-Spin Energy      =      -0.0201502391388106 [Eh]
	 SCS Opposite-Spin Energy  =      -0.2933345299251239 [Eh]
	 SCS Correlation Energy    =      -0.3134847690639345 [Eh]
	 SCS Total Energy          =     -78.3465045167386478 [Eh]
	-----------------------------------------------------------


*** tstop() called on Berts-MacBook-Pro.local at Wed Dec  6 23:17:34 2017
Module time:
	user time   =       0.28 seconds =       0.00 minutes
	system time =       0.05 seconds =       0.00 minutes
	total time  =          0 seconds =       0.00 minutes
Total time:
	user time   =       4.57 seconds =       0.08 minutes
	system time =       0.26 seconds =       0.00 minutes
	total time  =          5 seconds =       0.08 minutes
 MINTS: Wrapper to libmints.
   by Justin Turney

   Calculation information:
      Number of threads:                 1
      Number of atoms:                   6
      Number of AO shells:              26
      Number of SO shells:              26
      Number of primitives:             50
      Number of atomic orbitals:        52
      Number of basis functions:        52

      Number of irreps:                  1
      Integral cutoff                 0.00e+00
      Number of functions per irrep: [  52 ]

 OEINTS: Overlap, kinetic, potential, dipole, and quadrupole integrals
         stored in file 35.

      Computing two-electron integrals...done
      Computed 838394 non-zero two-electron integrals.
        Stored in file 33.


         ---------------------------------------------------------
                          Configuration Interaction
                            (a 'D E T C I' module)

                 C. David Sherrill, Daniel G. A. Smith, and
                              Matt L. Leininger
         ---------------------------------------------------------


   ==> Parameters <==

    EX LEVEL       =        2      H0 BLOCKSIZE  =     1000
    VAL EX LEVEL   =        0      H0 GUESS SIZE =     1000
    H0COUPLINGSIZE =        0      H0 COUPLING   =       NO
    MAXITER        =       24      NUM PRINT     =       20
    NUM ROOTS      =        1      ICORE         =        1
    PRINT LVL      =        1      FCI           =       NO
    R CONV         = 1.00e-07      MIXED         =      YES
    E CONV         = 1.00e-07      MIXED4        =      YES
    R4S            =       NO      REPL OTF      =       NO
    DIAG METHOD    =      SEM      FOLLOW ROOT   =        0
    PRECONDITIONER = DAVIDSON      UPDATE        = DAVIDSON
    S              =   0.0000      Ms0           =      YES
    GUESS VECTOR   =  H0BLOCK      OPENTYPE      =     NONE
    COLLAPSE SIZE  =        1      HD AVG        = EVANGELISTI
    MAX NUM VECS   =       25      REF SYM       =     AUTO
    IOPEN        =       NO

    EX ALLOW       =  1  1 
    STATE AVERAGE  =  0(1.00) 

   ==> CI Orbital and Space information <==

    RAS1 LVL      =        7      A RAS3 MAX    =        2
    RAS1 MIN      =       14      B RAS3 MAX    =        2
    A RAS1 LVL    =        7      RAS4 LVL      =       52
    A RAS1 MIN    =        6      A RAS4 MAX    =        0
    A RAS1 MAX    =        8      B RAS4 MAX    =        0
    B RAS1 LVL    =        7      RAS4 MAX      =        0
    B RAS1 MIN    =        6      A RAS34 MAX   =        2
    B RAS1 MAX    =        8      B RAS34 MAX   =        2
    RAS3 LVL      =        8      RAS34 MAX     =        2
    RAS3 MAX      =        2
   ------------------------------------
               Space    Total     A
   ------------------------------------
                 Nso       52    52
                 Nmo       52    52
               Ndocc        8     8
               Nsocc        0     0
   ------------------------------------
              CI Spaces
   ------------------------------------
        Dropped DOCC        0     0
                RAS1        8     8
                RAS2        0     0
                RAS3       44    44
                RAS4        0     0
      Active (total)       52    52
        Dropped UOCC        0     0
   ------------------------------------

   ==> Setting up CI strings <==

    There are 26841 alpha and 26841 beta strings
    The CI space requires 177585 (1.78E+05) determinants and 6 blocks

   ==> Transforming CI integrals <==

	Presorting SO-basis two-electron integrals.
	Sorting File: SO Ints (nn|nn) nbuckets = 1
	Transforming the one-electron integrals and constructing Fock matrices
	Starting first half-transformation.
	Sorting half-transformed integrals.
	First half integral transformation complete.
	Starting second half-transformation.
	Two-electron integral transformation complete.

   ==> Starting CI iterations <==

    H0 Block Eigenvalue = -78.06812445

    Simultaneous Expansion Method (Block Davidson Method)
    Using 1 initial trial vectors

     Iter   Root       Total Energy       Delta E      C RMS

   @CI  0:     0    -78.068124449500   -1.1107E+02   1.5383E+00  
   @CI  1:     0    -78.330595226510   -2.6247E-01   1.5363E-01  
   @CI  2:     0    -78.340646077483   -1.0051E-02   4.5676E-02  
   @CI  3:     0    -78.341357313416   -7.1124E-04   1.0408E-02  
   @CI  4:     0    -78.341397824457   -4.0511E-05   2.9232E-03  
   @CI  5:     0    -78.341400274945   -2.4505E-06   6.8653E-04  
   @CI  6:     0    -78.341400432199   -1.5725E-07   1.9317E-04  
   @CI  7:     0    -78.341400443613   -1.1415E-08   5.2207E-05  
   @CI  8:     0    -78.341400444473   -8.6018E-10   1.3632E-05  
   @CI  9:     0    -78.341400444531   -5.7213E-11   3.4466E-06  
   @CI 10:     0    -78.341400444534   -3.0127E-12   6.6375E-07  
    Warning: Norm of correction (root 0) is < 1.0E-13
   @CI 11:     0    -78.341400444534   -1.4211E-13   1.5319E-07  
    Warning: Norm of correction (root 0) is < 1.0E-13
   @CI 12:     0    -78.341400444534   4.2633E-14   3.2060E-08 c

   ==> Energetics <==

    SCF energy =            0.000000000000000
    Total CI energy =     -78.341400444533747

   ==> CISD root 0 information <==

    CISD Root 0 energy =   -78.341400444533747

   The 20 most important determinants:

    *   1    0.950777  (    0,    0)  1AX 2AX 3AX 4AX 5AX 6AX 7AX 8AX 
    *   2   -0.091519  (    1,    1)  1AX 2AX 3AX 4AX 5AX 6AX 7AX 9AX 
    *   3   -0.041143  (    1,   73)  1AX 2AX 3AX 4AX 5AX 6AX 7AX 9AA 18AB 
    *   4   -0.041143  (   73,    1)  1AX 2AX 3AX 4AX 5AX 6AX 7AX 9AB 18AA 
    *   5   -0.027040  (   99,   99)  1AX 2AX 3AX 4AX 5AX 7AX 8AX 21AX 
    *   6   -0.026124  (   73,   73)  1AX 2AX 3AX 4AX 5AX 6AX 7AX 18AX 
    *   7   -0.024349  (    1,   99)  1AX 2AX 3AX 4AX 5AX 6AA 7AX 8AB 9AA 21AB 
    *   8   -0.024349  (   99,    1)  1AX 2AX 3AX 4AX 5AX 6AB 7AX 8AA 9AB 21AA 
    *   9   -0.021047  (    0, 2202)  1AX 2AX 3AX 4AX 5AX 6AA 7AX 8AA 9AB 21AB 
    *  10   -0.021047  ( 2202,    0)  1AX 2AX 3AX 4AX 5AX 6AB 7AX 8AB 9AA 21AA 
    *  11   -0.020473  (   65,   65)  1AX 2AX 3AX 4AX 5AX 6AX 7AX 17AX 
    *  12   -0.020302  (   28,   28)  1AX 2AX 3AX 4AX 6AX 7AX 8AX 12AX 
    *  13    0.019959  (    1,    2)  1AX 2AX 3AX 4AX 5AX 6AX 7AA 8AB 9AX 
    *  14    0.019959  (    2,    1)  1AX 2AX 3AX 4AX 5AX 6AX 7AB 8AA 9AX 
    *  15   -0.019212  (   26,   26)  1AX 2AX 3AX 4AX 5AX 6AX 8AX 12AX 
    *  16   -0.018798  (   73,   99)  1AX 2AX 3AX 4AX 5AX 6AA 7AX 8AB 18AA 21AB 
    *  17   -0.018798  (   99,   73)  1AX 2AX 3AX 4AX 5AX 6AB 7AX 8AA 18AB 21AA 
    *  18   -0.018426  (    5,    5)  1AX 2AX 3AX 5AX 6AX 7AX 8AX 9AX 
    *  19   -0.017989  (   43,   43)  1AX 2AX 3AX 4AX 5AX 7AX 8AX 14AX 
    *  20    0.016228  (    0,   65)  1AX 2AX 3AX 4AX 5AX 6AX 7AX 8AA 17AB 

		 "A good bug is a dead bug" 

			 - Starship Troopers

		 "I didn't write FORTRAN.  That's the problem."

			 - Edward Valeev
 MINTS: Wrapper to libmints.
   by Justin Turney

   Calculation information:
      Number of threads:                 1
      Number of atoms:                   6
      Number of AO shells:              26
      Number of SO shells:              26
      Number of primitives:             50
      Number of atomic orbitals:        52
      Number of basis functions:        52

      Number of irreps:                  1
      Integral cutoff                 0.00e+00
      Number of functions per irrep: [  52 ]

 OEINTS: Overlap, kinetic, potential, dipole, and quadrupole integrals
         stored in file 35.

      Computing two-electron integrals...done
      Computed 838394 non-zero two-electron integrals.
        Stored in file 33.


*** tstart() called on Berts-MacBook-Pro.local
*** at Wed Dec  6 23:18:25 2017


	Wfn Parameters:
	--------------------
	Wavefunction         = CCSD
	Number of irreps     = 1
	Number of MOs        = 52
	Number of active MOs = 52
	AO-Basis             = NONE
	Semicanonical        = false
	Reference            = RHF
	Print Level          = 1

	IRREP	# MOs	# FZDC	# DOCC	# SOCC	# VIRT	# FZVR
	-----	-----	------	------	------	------	------
	 A	   52	    0	    8	    0	    44	    0
	Transforming integrals...
	IWL integrals will be deleted.
	(OO|OO)...
	Presorting SO-basis two-electron integrals.
	Sorting File: SO Ints (nn|nn) nbuckets = 1
	Transforming the one-electron integrals and constructing Fock matrices
	Starting first half-transformation.
	Sorting half-transformed integrals.
	First half integral transformation complete.
	Starting second half-transformation.
	Two-electron integral transformation complete.
	(OO|OV)...
	Starting second half-transformation.
	Two-electron integral transformation complete.
	(OO|VV)...
	Starting second half-transformation.
	Two-electron integral transformation complete.
	(OV|OO)...
	Starting first half-transformation.
	Sorting half-transformed integrals.
	First half integral transformation complete.
	Starting second half-transformation.
	Two-electron integral transformation complete.
	(OV|OV)...
	Starting second half-transformation.
	Two-electron integral transformation complete.
	(OV|VV)...
	Starting second half-transformation.
	Two-electron integral transformation complete.
	(VV|OO)...
	Starting first half-transformation.
	Sorting half-transformed integrals.
	First half integral transformation complete.
	Starting second half-transformation.
	Two-electron integral transformation complete.
	(VV|OV)...
	Starting second half-transformation.
	Two-electron integral transformation complete.
	(VV|VV)...
	Starting second half-transformation.
	Two-electron integral transformation complete.
	Frozen core energy     =      0.00000000000000

	Size of irrep 0 of <ab|cd> integrals:      3.748 (MW) /     29.985 (MB)
	Total:                                     3.748 (MW) /     29.985 (MB)

	Size of irrep 0 of <ia|bc> integrals:      0.681 (MW) /      5.452 (MB)
	Total:                                     0.681 (MW) /      5.452 (MB)

	Size of irrep 0 of tijab amplitudes:       0.124 (MW) /      0.991 (MB)
	Total:                                     0.124 (MW) /      0.991 (MB)

	Nuclear Rep. energy          =     33.00394704996651
	SCF energy                   =    -78.03301974767471
	One-electron energy          =   -169.29088454385229
	Two-electron energy          =     58.25391774621094
	Reference energy             =    -78.03301974767484

*** tstop() called on Berts-MacBook-Pro.local at Wed Dec  6 23:18:26 2017
Module time:
	user time   =       0.27 seconds =       0.00 minutes
	system time =       0.41 seconds =       0.01 minutes
	total time  =          1 seconds =       0.02 minutes
Total time:
	user time   =      55.79 seconds =       0.93 minutes
	system time =       1.28 seconds =       0.02 minutes
	total time  =         57 seconds =       0.95 minutes

*** tstart() called on Berts-MacBook-Pro.local
*** at Wed Dec  6 23:18:26 2017

            **************************
            *                        *
            *        CCENERGY        *
            *                        *
            **************************

    Nuclear Rep. energy (wfn)     =   33.003947049966506
    SCF energy          (wfn)     =  -78.033019747674714
    Reference energy    (file100) =  -78.033019747674842

    Input parameters:
    -----------------
    Wave function   =     CCSD
    Reference wfn   =     RHF
    Brueckner       =     No
    Memory (Mbytes) =     8000.0
    Maxiter         =   1000000
    R_Convergence   =     1.0e-07
    E_Convergence   =     1.0e-07
    Restart         =     Yes
    DIIS            =     Yes
    AO Basis        =     NONE
    ABCD            =     NEW
    Cache Level     =     2
    Cache Type      =     LOW
    Print Level     =     1
    Num. of threads =     1
    # Amps to Print =     1000000
    Print MP2 Amps? =     No
    Analyze T2 Amps =     No
    Print Pair Ener =     No
    Local CC        =     No
    SCS-MP2         =     False
    SCSN-MP2        =     False
    SCS-CCSD        =     False

MP2 correlation energy -0.3049038687034077
                Solving CC Amplitude Equations
                ------------------------------
  Iter             Energy              RMS        T1Diag      D1Diag    New D1Diag    D2Diag
  ----     ---------------------    ---------   ----------  ----------  ----------   --------
     0        -0.304903868703408    0.000e+00    0.000000    0.000000    0.000000    0.158822
     1        -0.324918727871090    5.396e-02    0.006721    0.023736    0.023736    0.175334
     2        -0.334960011753609    2.281e-02    0.008314    0.030184    0.030184    0.194235
     3        -0.336210384302395    8.052e-03    0.009426    0.034665    0.034665    0.202307
     4        -0.336277945568088    2.735e-03    0.009582    0.035475    0.035475    0.205725
     5        -0.336298599271060    5.721e-04    0.009586    0.035518    0.035518    0.206210
     6        -0.336297373304785    1.507e-04    0.009580    0.035503    0.035503    0.206236
     7        -0.336297063499991    4.708e-05    0.009578    0.035496    0.035496    0.206243
     8        -0.336296942696141    1.518e-05    0.009578    0.035495    0.035495    0.206243
     9        -0.336296790636964    4.034e-06    0.009578    0.035494    0.035494    0.206242
    10        -0.336296902688867    1.102e-06    0.009578    0.035494    0.035494    0.206242
    11        -0.336296909171399    3.008e-07    0.009578    0.035495    0.035495    0.206242
    12        -0.336296917177953    7.546e-08    0.009578    0.035495    0.035495    0.206242

    Iterations converged.


    Largest TIA Amplitudes:
              7   8         0.0273573776
              7   7         0.0144241597
              7  10         0.0117892475
              7  19         0.0100265177
              4   3         0.0057429218
              5  21         0.0045402763
              3  13         0.0044271515
              6  10         0.0042462590
              7  28         0.0039544994
              5   5         0.0036454151
              6   7         0.0036397226
              6  34         0.0032893331
              4  22        -0.0032334354
              7  17         0.0032303479
              6   8         0.0032236684
              4  15         0.0028491272
              3  25         0.0028230971
              2  24         0.0027925398
              2   2        -0.0027275122
              2  40         0.0026469382
              5  33        -0.0021787148
              2  21         0.0019681557
              3  41         0.0018515305
              3  29        -0.0017969075
              4  37         0.0017645220
              6  23        -0.0016725700
              3  35         0.0015115712
              6  19         0.0015011253
              2   5         0.0014905222
              3  30        -0.0014851951
              2  11         0.0014438863
              5  20         0.0013948564
              5   2        -0.0013563249
              4   0        -0.0013206799
              4  27         0.0012703555
              3  38         0.0012515690
              5  14        -0.0012400457
              7  34        -0.0012352588
              6  17         0.0012196103
              5  36        -0.0012139148
              2  36         0.0010760753
              4  32         0.0010123959
              4   9        -0.0009839570
              7  23         0.0009079704
              3  12         0.0008696566
              3   1        -0.0008529854
              5  11        -0.0007938851
              2  14         0.0007671428
              3   4         0.0007655443
              2  31        -0.0007483894
              3  16         0.0006475633
              6  39         0.0006262365
              1  13        -0.0005546889
              5  40         0.0005118471
              7  39         0.0005014158
              0  40        -0.0004597774
              4   6         0.0004497294
              2  33        -0.0004027663
              1  41        -0.0003710669
              0  11        -0.0003325307
              1   1        -0.0003284046
              0  14        -0.0002924579
              1  12        -0.0002673207
              6  28         0.0002644291
              0   2        -0.0002440011
              1  35        -0.0002227241
              1   4        -0.0001800793
              1  38        -0.0001660526
              0  36        -0.0001592596
              0   5        -0.0001380162
              1  25        -0.0001241012
              2  42         0.0001225523
              5  31        -0.0001149896
              0  21        -0.0001049000
              4  26         0.0001001602
              1  43         0.0000974015
              0  42         0.0000967735
              1  29        -0.0000951944
              3  43         0.0000908290
              1  16        -0.0000745715
              5  24         0.0000529220
              0  33        -0.0000413353
              3  18        -0.0000400902
              1  30        -0.0000377757
              0  24        -0.0000318232
              5  42         0.0000184227
              1  18        -0.0000115243
              0  31         0.0000015124
              2  20         0.0000013939
              0  20        -0.0000004589

    Largest TIjAb Amplitudes:
      7   7   0   0        -0.1322863960
      7   7   0   9        -0.0551609159
      7   7   9   0        -0.0551609159
      7   7   9   9        -0.0312286861
      5   5  12  12        -0.0311206516
      5   7  12   0        -0.0281808648
      7   5   0  12        -0.0281808648
      6   7   0   0        -0.0260206864
      7   6   0   0        -0.0260206864
      4   4   3   3        -0.0245891054
      6   6   3   3        -0.0242684599
      7   7   8   8        -0.0237042320
      5   7  12   9        -0.0217662835
      7   5   9  12        -0.0217662835
      3   3   0   0        -0.0216007474
      5   5   5   5        -0.0215935922
      6   6   4   4        -0.0190751512
      4   6   3  10         0.0184789210
      6   4  10   3         0.0184789210
      3   7   2   0        -0.0180488931
      7   3   0   2        -0.0180488931
      7   7  11  11        -0.0177148761
      6   6   7   7        -0.0173330127
      2   7  12   0        -0.0171445825
      7   2   0  12        -0.0171445825
      5   7   5   8         0.0171428978
      7   5   8   5         0.0171428978
      5   5   3   3        -0.0168111867
      4   6   2   4        -0.0166817506
      6   4   4   2        -0.0166817506
      6   6   0   0        -0.0163963802
      4   4   2   2        -0.0163138550
      2   7   1   0        -0.0160369920
      7   2   0   1        -0.0160369920
      6   7   7   8        -0.0159329827
      7   6   8   7        -0.0159329827
      4   5   3   5         0.0158379612
      5   4   5   3         0.0158379612
      4   4   6   6        -0.0156287939
      3   7   0   2        -0.0156051779
      7   3   2   0        -0.0156051779
      2   7   0  12        -0.0155167915
      7   2  12   0        -0.0155167915
      4   6   6   7        -0.0149874767
      6   4   7   6        -0.0149874767
      4   7   6   8        -0.0147984485
      7   4   8   6        -0.0147984485
      5   6   3   4         0.0147854749
      6   5   4   3         0.0147854749
      2   2  12  12        -0.0147753597
      5   6   5   7         0.0143052305
      6   5   7   5         0.0143052305
      6   6  10  10        -0.0141588380
      6   7   6   0        -0.0140008132
      7   6   0   6        -0.0140008132
      4   7   3   8        -0.0138507302
      7   4   8   3        -0.0138507302
      6   7   0   3        -0.0136685135
      7   6   3   0        -0.0136685135
      3   5   1   5         0.0136645139
      5   3   5   1         0.0136645139
      6   7   0   9        -0.0136126439
      7   6   9   0        -0.0136126439
      4   6   3   7        -0.0135364088
      6   4   7   3        -0.0135364088
      4   6  10   3         0.0134424362
      6   4   3  10         0.0134424362
      6   6   2   2        -0.0133280529
      2   7   1   9        -0.0132063393
      7   2   9   1        -0.0132063393
      2   7  12   9        -0.0131020845
      7   2   9  12        -0.0131020845
      2   7   0   4        -0.0129625710
      7   2   4   0        -0.0129625710
      3   7   1   8        -0.0128165841
      7   3   8   1        -0.0128165841
      5   6  12   6        -0.0128087676
      6   5   6  12        -0.0128087676
      2   7  13   9        -0.0127884322
      7   2   9  13        -0.0127884322
      3   5   2  12        -0.0126731800
      5   3  12   2        -0.0126731800
      5   6   5  10        -0.0126506559
      6   5  10   5        -0.0126506559
      3   3  12  12        -0.0125314382
      6   7   9   0        -0.0124982939
      7   6   0   9        -0.0124982939
      2   7   0   1        -0.0123909183
      7   2   1   0        -0.0123909183
      3   7   0  11         0.0123356048
      7   3  11   0         0.0123356048
      5   5  19  19        -0.0122888153
      4   7  10   0         0.0122702195
      7   4   0  10         0.0122702195
      3   6   0  20         0.0121806143
      6   3  20   0         0.0121806143
      4   4  10  10        -0.0121550784
      2   5  13  12        -0.0120567884
      5   2  12  13        -0.0120567884
      3   3   2   2        -0.0120076297
      4   7   7   0        -0.0119613506
      7   4   0   7        -0.0119613506
      3   4   1   3        -0.0119427246
      4   3   3   1        -0.0119427246
      6   6  14  14        -0.0119279707
      3   6   1   7        -0.0119109624
      6   3   7   1        -0.0119109624
      4   6   4   2        -0.0118975602
      6   4   2   4        -0.0118975602
      6   7   6   9        -0.0118721584
      7   6   9   6        -0.0118721584
      4   6   3  17         0.0118443302
      6   4  17   3         0.0118443302
      4   5   6   5         0.0118080320
      5   4   5   6         0.0118080320
      3   5   0  19         0.0117800421
      5   3  19   0         0.0117800421
      6   6   7  10         0.0117348300
      6   6  10   7         0.0117348300
      4   7   7   9        -0.0117260266
      7   4   9   7        -0.0117260266
      4   5   7  12        -0.0116414837
      5   4  12   7        -0.0116414837
      7   7  12  12        -0.0116391322
      3   4   0  18         0.0115271892
      4   3  18   0         0.0115271892
      2   7  13   0        -0.0115225941
      7   2   0  13        -0.0115225941
      3   7   0   5        -0.0114902641
      7   3   5   0        -0.0114902641
      3   3   1   1        -0.0114843590
      3   7   2   9        -0.0114739124
      7   3   9   2        -0.0114739124
      4   5   2   3         0.0114521669
      5   4   3   2         0.0114521669
      4   4   4   4        -0.0114229124
      6   6  16  16        -0.0111054791
      2   7   4   0        -0.0110519300
      7   2   0   4        -0.0110519300
      5   5   2   2        -0.0109989623
      3   7   5   0        -0.0109936233
      7   3   0   5        -0.0109936233
      4   4   3  15        -0.0109572256
      4   4  15   3        -0.0109572256
      3   6   1  10         0.0109336918
      6   3  10   1         0.0109336918
      4   7  10   9         0.0108859522
      7   4   9  10         0.0108859522
      3   7   5   9        -0.0107101543
      7   3   9   5        -0.0107101543
      4   6  14   4        -0.0107064714
      6   4   4  14        -0.0107064714
      5   5   0   0        -0.0107062043
      5   5  15  15        -0.0106553735
      6   7  10   8         0.0106151978
      7   6   8  10         0.0106151978
      6   6   6   6        -0.0105987696
      3   3  14  14        -0.0105827744
      3   7  13   8        -0.0105726511
      7   3   8  13        -0.0105726511
      4   4   7   7        -0.0105449859
      4   6   7   6        -0.0105358958
      6   4   6   7        -0.0105358958
      2   2   0   0        -0.0104744281
      3   3   4   4        -0.0104615833
      3   7   0  24        -0.0103725543
      7   3  24   0        -0.0103725543
      4   4  18  18        -0.0103607492
      5   5   3  15        -0.0102463982
      5   5  15   3        -0.0102463982
      3   5   4   2         0.0102127410
      5   3   2   4         0.0102127410
      6   6  15  15        -0.0101915696
      3   3   5   5        -0.0101583685
      3   7   0  14        -0.0101494735
      7   3  14   0        -0.0101494735
      4   4  15  15        -0.0101240042
      6   6  20  20        -0.0101145023
      2   7  11   8        -0.0100293655
      7   2   8  11        -0.0100293655
      3   5  13   5         0.0099813891
      5   3   5  13         0.0099813891
      3   5   2   4         0.0099372153
      5   3   4   2         0.0099372153
      4   6  14  16        -0.0098975872
      6   4  16  14        -0.0098975872
      4   6  18  20        -0.0098824980
      6   4  20  18        -0.0098824980
      2   5   1  12        -0.0098208970
      5   2  12   1        -0.0098208970
      4   6  17   3         0.0098148767
      6   4   3  17         0.0098148767
      3   4  13   3        -0.0097756690
      4   3   3  13        -0.0097756690
      6   6   3  15        -0.0097748385
      6   6  15   3        -0.0097748385
      4   6   4  14        -0.0097699712
      6   4  14   4        -0.0097699712
      4   4  14  14        -0.0097639318
      2   2   3   3        -0.0097623957
      4   6  16  14        -0.0096199917
      6   4  14  16        -0.0096199917
      6   6  17  17        -0.0094762639
      4   6  15  17         0.0094497042
      6   4  17  15         0.0094497042
      5   7   0   4         0.0094398407
      7   5   4   0         0.0094398407
      6   6   4  16        -0.0094354269
      6   6  16   4        -0.0094354269
      5   6   3  16         0.0094247706
      6   5  16   3         0.0094247706
      2   5  11   5         0.0093108517
      5   2   5  11         0.0093108517
      3   5  12   2        -0.0093100703
      5   3   2  12        -0.0093100703
      4   4   7  10         0.0092741165
      4   4  10   7         0.0092741165
      7   7  19  19        -0.0092685849
      3   5  11  12        -0.0092629151
      5   3  12  11        -0.0092629151
      4   5  14   3         0.0092433819
      5   4   3  14         0.0092433819
      2   5  12  12        -0.0092364554
      5   2  12  12        -0.0092364554
      6   7   9   9        -0.0092052613
      7   6   9   9        -0.0092052613
      4   7   0  10         0.0091739679
      7   4  10   0         0.0091739679
      3   5   5  12        -0.0091561264
      5   3  12   5        -0.0091561264
      3   4   1   6        -0.0091527250
      4   3   6   1        -0.0091527250
      5   6  12   0        -0.0091280744
      6   5   0  12        -0.0091280744
      2   7   9  12        -0.0091015650
      7   2  12   9        -0.0091015650
      7   7  18  18        -0.0090915997
      5   7   4   0         0.0090908355
      7   5   0   4         0.0090908355
      3   3   2  14        -0.0090632540
      3   3  14   2        -0.0090632540
      5   6  15  16         0.0090083853
      6   5  16  15         0.0090083853
      3   3   0   9        -0.0089540960
      3   3   9   0        -0.0089540960
      6   6  18  18        -0.0089274126
      4   4  20  20        -0.0089255217
      5   5   4   4        -0.0089223417
      4   6   6  10         0.0089212379
      6   4  10   6         0.0089212379
      2   2  13  13        -0.0089071073
      3   6   3   2        -0.0088388374
      6   3   2   3        -0.0088388374
      3   6  13   7        -0.0088339164
      6   3   7  13        -0.0088339164
      4   4   3   6        -0.0088024093
      4   4   6   3        -0.0088024093
      6   6   2  14        -0.0087348501
      6   6  14   2        -0.0087348501
      7   7   3   3        -0.0086761370
      4   5  18  19        -0.0086757428
      5   4  19  18        -0.0086757428
      2   4  11   6        -0.0086554059
      4   2   6  11        -0.0086554059
      4   4  16  16        -0.0086422160
      2   7   0  16        -0.0086159960
      7   2  16   0        -0.0086159960
      3   3   3   3        -0.0085409679
      2   4   0  20         0.0084909843
      4   2  20   0         0.0084909843
      3   7  14   0        -0.0084367653
      7   3   0  14        -0.0084367653
      7   7   0   6         0.0084110138
      7   7   6   0         0.0084110138
      4   7   3  19         0.0083581270
      7   4  19   3         0.0083581270
      2   2  12  13        -0.0083542319
      2   2  13  12        -0.0083542319
      2   6  11   7        -0.0083125056
      6   2   7  11        -0.0083125056
      3   6  13  10         0.0083069391
      6   3  10  13         0.0083069391
      6   7   3   3         0.0083066994
      7   6   3   3         0.0083066994
      2   2   0   9        -0.0082769928
      2   2   9   0        -0.0082769928
      2   7   9   1        -0.0082439161
      7   2   1   9        -0.0082439161
      4   4   2  14        -0.0082368395
      4   4  14   2        -0.0082368395
      4   5  10  12         0.0081424372
      5   4  12  10         0.0081424372
      3   6   5   3        -0.0081122844
      6   3   3   5        -0.0081122844
      3   6   3  14        -0.0081039592
      6   3  14   3        -0.0081039592
      3   5   4  14         0.0080884149
      5   3  14   4         0.0080884149
      5   7   3  18         0.0080454176
      7   5  18   3         0.0080454176
      3   5  14   4         0.0080142381
      5   3   4  14         0.0080142381
      2   2  11  11        -0.0079883494
      3   4   5  10         0.0079717600
      4   3  10   5         0.0079717600
      2   2   9   9        -0.0079535244
      5   5   4  12         0.0079493524
      5   5  12   4         0.0079493524
      5   6  19  20        -0.0079000221
      6   5  20  19        -0.0079000221
      2   6   0  18         0.0078929157
      6   2  18   0         0.0078929157
      4   6  20  18        -0.0078742640
      6   4  18  20        -0.0078742640
      3   6  15  14        -0.0078668071
      6   3  14  15        -0.0078668071
      2   7   2   8        -0.0078353157
      7   2   8   2        -0.0078353157
      5   6   1   3         0.0078233148
      6   5   3   1         0.0078233148
      4   6  17  15         0.0078193885
      6   4  15  17         0.0078193885
      4   5   3  21         0.0078000282
      5   4  21   3         0.0078000282
      5   7  13   0        -0.0077693275
      7   5   0  13        -0.0077693275
      2   4  13  10         0.0077629836
      4   2  10  13         0.0077629836
      4   4  17  17        -0.0077392344
      5   5   1   1        -0.0077277365
      3   3   1  13        -0.0077244128
      3   3  13   1        -0.0077244128
      3   3  13  13        -0.0076914605
      3   4   3   4        -0.0076807466
      4   3   4   3        -0.0076807466
      4   6   7   3        -0.0076651519
      6   4   3   7        -0.0076651519
      3   7   9   2        -0.0076568773
      7   3   2   9        -0.0076568773
      4   6  10   6         0.0076405091
      6   4   6  10         0.0076405091
      4   5  14  15         0.0076254132
      5   4  15  14         0.0076254132
      7   7   1   1        -0.0076249593
      3   4  13   6        -0.0075753223
      4   3   6  13        -0.0075753223
      7   7   0   3        -0.0075746974
      7   7   3   0        -0.0075746974
      5   5  14  14        -0.0075727686
      3   3  16  16        -0.0075661010
      6   6   1   1        -0.0075552811
      7   7   8  10        -0.0075500733
      7   7  10   8        -0.0075500733
      3   5   5   1         0.0075381421
      5   3   1   5         0.0075381421
      5   6  15   4         0.0075301179
      6   5   4  15         0.0075301179
      2   2  19  19        -0.0074488942
      4   4   0   0        -0.0073636558
      2   4  13   7        -0.0073118298
      4   2   7  13        -0.0073118298
      3   5   4   5         0.0072792880
      5   3   5   4         0.0072792880
      2   2   3  15        -0.0072590714
      2   2  15   3        -0.0072590714
      5   7  15  18         0.0071947369
      7   5  18  15         0.0071947369
      3   4   5   7        -0.0071904728
      4   3   7   5        -0.0071904728
      7   7  24  24        -0.0071807137
      2   4   2   6        -0.0071786661
      4   2   6   2        -0.0071786661
      5   5   2  14        -0.0071442631
      5   5  14   2        -0.0071442631
      2   4   1  10         0.0071053491
      4   2  10   1         0.0071053491
      3   5  14  16         0.0070660499
      5   3  16  14         0.0070660499
      2   2  15  15        -0.0070598984
      3   6  14   3        -0.0070495332
      6   3   3  14        -0.0070495332
      7   7   1  12        -0.0070137502
      7   7  12   1        -0.0070137502
      3   6   2   6        -0.0070077322
      6   3   6   2        -0.0070077322
      3   3   2   5        -0.0069882500
      3   3   5   2        -0.0069882500
      3   6   2  22        -0.0069440639
      6   3  22   2        -0.0069440639
      2   3   2   4        -0.0069350209
      3   2   4   2        -0.0069350209
      2   5   2   5         0.0069095965
      5   2   5   2         0.0069095965
      3   7  12  19         0.0069057461
      7   3  19  12         0.0069057461
      3   5  16  14         0.0068922734
      5   3  14  16         0.0068922734
      2   6   3  12        -0.0068884749
      6   2  12   3        -0.0068884749
      5   5  11  11        -0.0068834577
      3   3  10  10        -0.0068733750
      2   6  13   3        -0.0068714246
      6   2   3  13        -0.0068714246
      3   6  20   0         0.0068532350
      6   3   0  20         0.0068532350
      4   4  21  21        -0.0068303951
      3   6   4  10         0.0068238335
      6   3  10   4         0.0068238335
      2   5  12  13        -0.0068121431
      5   2  13  12        -0.0068121431
      5   6   4   3         0.0068052010
      6   5   3   4         0.0068052010
      6   6  10  17        -0.0068035006
      6   6  17  10        -0.0068035006
      2   4  12  10         0.0067791874
      4   2  10  12         0.0067791874
      5   6  17  14        -0.0067756325
      6   5  14  17        -0.0067756325
      5   5  21  21        -0.0067631393
      2   6   3   1        -0.0067502164
      6   2   1   3        -0.0067502164
      3   3  19  19        -0.0067438399
      2   4   1   7        -0.0067417279
      4   2   7   1        -0.0067417279
      7   7   6   9         0.0067327950
      7   7   9   6         0.0067327950
      5   7   5  10         0.0066696593
      7   5  10   5         0.0066696593
      3   6   5   6        -0.0066437845
      6   3   6   5        -0.0066437845
      5   6  12   9        -0.0066394047
      6   5   9  12        -0.0066394047
      3   5  14  12        -0.0066346338
      5   3  12  14        -0.0066346338
      3   4   4   3        -0.0066216317
      4   3   3   4        -0.0066216317
      6   6  23  23        -0.0065897751
      2   6  13   6        -0.0065877791
      6   2   6  13        -0.0065877791
      6   6  21  21        -0.0065864587
      4   4   4  16        -0.0065854613
      4   4  16   4        -0.0065854613
      3   3   4  16        -0.0065690792
      3   3  16   4        -0.0065690792
      3   7  14   9        -0.0065662040
      7   3   9  14        -0.0065662040
      7   7   4   4        -0.0065617739
      3   7  11   9        -0.0065537519
      7   3   9  11        -0.0065537519
      4   5   4  10        -0.0065464802
      5   4  10   4        -0.0065464802
      3   3   9   9        -0.0065374082
      3   4  15  16        -0.0065365216
      4   3  16  15        -0.0065365216
      6   7  22   0        -0.0065297287
      7   6   0  22        -0.0065297287
      2   7   9  13        -0.0065270589
      7   2  13   9        -0.0065270589
      3   3  20  20        -0.0065208336
      2   7   4   9        -0.0065155291
      7   2   9   4        -0.0065155291
      7   7   5  11         0.0065072436
      7   7  11   5         0.0065072436
      4   7   6  10        -0.0065051067
      7   4  10   6        -0.0065051067
      4   5  16  17        -0.0065024118
      5   4  17  16        -0.0065024118
      2   6   2   7        -0.0065000048
      6   2   7   2        -0.0065000048
      3   5  19   0         0.0064928024
      5   3   0  19         0.0064928024
      5   7  19  24         0.0064892206
      7   5  24  19         0.0064892206
      3   6   4   7        -0.0064840859
      6   3   7   4        -0.0064840859
      4   6   2  16        -0.0064593911
      6   4  16   2        -0.0064593911
      3   4   4   6        -0.0064520137
      4   3   6   4        -0.0064520137
      7   7   2   2        -0.0064181704
      2   2   1  13        -0.0064077259
      2   2  13   1        -0.0064077259
      6   6  11  11        -0.0063887589
      3   6  21   3        -0.0063778375
      6   3   3  21        -0.0063778375
      3   6   3   5        -0.0063743404
      6   3   5   3        -0.0063743404
      4   4  10  17        -0.0063627271
      4   4  17  10        -0.0063627271
      3   3  15  15        -0.0063185985
      3   4   2   7        -0.0062895011
      4   3   7   2        -0.0062895011
      7   7  10  10        -0.0062742336
      2   7   9   4        -0.0062694033
      7   2   4   9        -0.0062694033
      4   7  15  19         0.0062461242
      7   4  19  15         0.0062461242
      2   6   1   6        -0.0062384667
      6   2   6   1        -0.0062384667
      2   2   1  12        -0.0062350969
      2   2  12   1        -0.0062350969
      3   3  18  18        -0.0062082988
      6   7   3   9        -0.0062071349
      7   6   9   3        -0.0062071349
      2   6   3  13        -0.0062036768
      6   2  13   3        -0.0062036768
      3   6  11   6        -0.0061630714
      6   3   6  11        -0.0061630714
      4   5  15  11        -0.0061581319
      5   4  11  15        -0.0061581319
      5   5   5  21        -0.0061567612
      5   5  21   5        -0.0061567612
      3   7   4   8        -0.0061280630
      7   3   8   4        -0.0061280630
      3   5   9  19         0.0061244809
      5   3  19   9         0.0061244809
      5   6  12  22        -0.0061215548
      6   5  22  12        -0.0061215548
      3   4  18   0         0.0061068930
      4   3   0  18         0.0061068930
      3   3  11  11        -0.0060956732
      6   7   7  10        -0.0060536912
      7   6  10   7        -0.0060536912
      2   7   0  13        -0.0060393932
      7   2  13   0        -0.0060393932
      4   4   0   3         0.0060303849
      4   4   3   0         0.0060303849
      4   6  16  11         0.0060267078
      6   4  11  16         0.0060267078
      6   6   4  13        -0.0060242908
      6   6  13   4        -0.0060242908
      3   6  10   1         0.0060221219
      6   3   1  10         0.0060221219
      2   5   0  26        -0.0060105836
      5   2  26   0        -0.0060105836
      2   5   2   2         0.0060047449
      5   2   2   2         0.0060047449
      5   6   2   7         0.0059778647
      6   5   7   2         0.0059778647
      3   4   2  10         0.0059747050
      4   3  10   2         0.0059747050
      3   6   7   1        -0.0059702933
      6   3   1   7        -0.0059702933
      3   4   3  13        -0.0059684616
      4   3  13   3        -0.0059684616
      4   6  15  10         0.0059436850
      6   4  10  15         0.0059436850
      5   7   0  16         0.0059373807
      7   5  16   0         0.0059373807
      4   5   6   2         0.0059099481
      5   4   2   6         0.0059099481
      3   7   9  24        -0.0059047891
      7   3  24   9        -0.0059047891
      2   2   1   1        -0.0059043049
      3   6   4  23        -0.0059034523
      6   3  23   4        -0.0059034523
      2   3   1   5        -0.0058937412
      3   2   5   1        -0.0058937412
      3   6  17  16         0.0058879549
      6   3  16  17         0.0058879549
      3   4  17  14         0.0058676457
      4   3  14  17         0.0058676457
      5   7  21  19        -0.0058657692
      7   5  19  21        -0.0058657692
      7   7   5   5        -0.0058627923
      3   3  17  17        -0.0058368580
      3   7   9   5        -0.0058355606
      7   3   5   9        -0.0058355606
      7   7   8  19         0.0058206626
      7   7  19   8         0.0058206626
      5   5  17  17        -0.0058183302
      3   6  19  18         0.0058138355
      6   3  18  19         0.0058138355
      5   7   9  12        -0.0058062397
      7   5  12   9        -0.0058062397
      3   4   2  23        -0.0057550788
      4   3  23   2        -0.0057550788
      2   3   4   2        -0.0057512524
      3   2   2   4        -0.0057512524
      2   2  18  18        -0.0057404886
      5   6  10   2        -0.0057397422
      6   5   2  10        -0.0057397422
      6   7  10  10         0.0057303155
      7   6  10  10         0.0057303155
      4   6  11  16         0.0057296596
      6   4  16  11         0.0057296596
      7   7   0  26        -0.0057239375
      7   7  26   0        -0.0057239375
      3   6  14  15        -0.0057040203
      6   3  15  14        -0.0057040203
      2   4   3  21        -0.0057021186
      4   2  21   3        -0.0057021186
      2   5   8  19         0.0056937645
      5   2  19   8         0.0056937645
      3   4  11   7        -0.0056783961
      4   3   7  11        -0.0056783961
      6   6  11  14         0.0056722194
      6   6  14  11         0.0056722194
      3   3   4  12         0.0056678017
      3   3  12   4         0.0056678017
      3   7   1  10        -0.0056570036
      7   3  10   1        -0.0056570036
      3   5   0  10         0.0056543524
      5   3  10   0         0.0056543524
      4   7   3  10        -0.0056532695
      7   4  10   3        -0.0056532695
      7   7  13  13        -0.0056436733
      3   4   4  22        -0.0056363079
      4   3  22   4        -0.0056363079
      6   6  22  22        -0.0056082517
      2   6  12   3        -0.0055875940
      6   2   3  12        -0.0055875940
      2   7   3  18         0.0055858707
      7   2  18   3         0.0055858707
      3   6  12  23         0.0055852707
      6   3  23  12         0.0055852707
      4   4   1   1        -0.0055771743
      2   4  12  17         0.0055589335
      4   2  17  12         0.0055589335
      3   5   2  16         0.0055504339
      5   3  16   2         0.0055504339
      2   6   1   3        -0.0055447503
      6   2   3   1        -0.0055447503
      2   3  14   4        -0.0055411916
      3   2   4  14        -0.0055411916
      2   5  12  25        -0.0055372532
      5   2  25  12        -0.0055372532
      4   7  18  24         0.0055101137
      7   4  24  18         0.0055101137
      5   6   2  23         0.0055072896
      6   5  23   2         0.0055072896
      3   7   9  14        -0.0054875313
      7   3  14   9        -0.0054875313
      3   6  10   4         0.0054864876
      6   3   4  10         0.0054864876
      2   5   5  11         0.0054816849
      5   2  11   5         0.0054816849
      4   4  11  11        -0.0054736563
      2   3   0  19        -0.0054690963
      3   2  19   0        -0.0054690963
      2   5  12  29        -0.0054663001
      5   2  29  12        -0.0054663001
      3   6   2   3        -0.0054598642
      6   3   3   2        -0.0054598642
      3   4  12  15        -0.0054513073
      4   3  15  12        -0.0054513073
      5   6  16  15         0.0054508224
      6   5  15  16         0.0054508224
      4   5  22   2         0.0054478832
      5   4   2  22         0.0054478832
      6   6  25  25        -0.0054437646
      5   6  16   3         0.0054370440
      6   5   3  16         0.0054370440
      2   5   4   4         0.0054338122
      5   2   4   4         0.0054338122
      2   3  18  20        -0.0054196346
      3   2  20  18        -0.0054196346
      6   6  13  13        -0.0054131089
      4   6  21  25         0.0054123936
      6   4  25  21         0.0054123936
      3   3   7   7        -0.0054100850
      2   5   3  15        -0.0053893799
      5   2  15   3        -0.0053893799
      5   5   4  16        -0.0053885108
      5   5  16   4        -0.0053885108
      3   4   0   4         0.0053857576
      4   3   4   0         0.0053857576
      2   6  18   0         0.0053549442
      6   2   0  18         0.0053549442
      4   4  12  12        -0.0053485030
      6   7   9   3        -0.0053474983
      7   6   3   9        -0.0053474983
      5   6  25   3        -0.0053300164
      6   5   3  25        -0.0053300164
      3   6  14  22        -0.0053239351
      6   3  22  14        -0.0053239351
      3   4  12   3        -0.0053157925
      4   3   3  12        -0.0053157925
      2   3  13   5        -0.0053149273
      3   2   5  13        -0.0053149273
      5   5  16  16        -0.0053099643
      5   6   0  18        -0.0053083160
      6   5  18   0        -0.0053083160
      4   7  20  12         0.0053015190
      7   4  12  20         0.0053015190
      6   6   5   5        -0.0052972438
      2   3   4  14        -0.0052886465
      3   2  14   4        -0.0052886465
      4   6   2  13        -0.0052832739
      6   4  13   2        -0.0052832739
      4   5   4  17        -0.0052711414
      5   4  17   4        -0.0052711414
      2   3   3  10         0.0052680255
      3   2  10   3         0.0052680255
      3   3  21  21        -0.0052621343
      4   6  16   2        -0.0052604528
      6   4   2  16        -0.0052604528
      3   5  12  21         0.0052587331
      5   3  21  12         0.0052587331
      3   3   4  13        -0.0052577938
      3   3  13   4        -0.0052577938
      6   6  12  12        -0.0052542656
      5   5  13  13        -0.0052540228
      5   6   4  22         0.0052497802
      6   5  22   4         0.0052497802
      3   3   5  14        -0.0052436828
      3   3  14   5        -0.0052436828
      5   7  12   6         0.0052411214
      7   5   6  12         0.0052411214
      4   5   2  15         0.0052354806
      5   4  15   2         0.0052354806
      7   7  20  20        -0.0052252938
      3   3   1   4        -0.0052244687
      3   3   4   1        -0.0052244687
      4   4  23  23        -0.0052185296
      4   4  22  22        -0.0052177033
      7   7   4  12        -0.0052090377
      7   7  12   4        -0.0052090377
      3   4   3   1        -0.0051940929
      4   3   1   3        -0.0051940929
      2   4  20   0         0.0051934493
      4   2   0  20         0.0051934493
      2   5   3  27        -0.0051912960
      5   2  27   3        -0.0051912960
      6   6   0   9        -0.0051882577
      6   6   9   0        -0.0051882577
      3   5  12  14        -0.0051772936
      5   3  14  12        -0.0051772936
      3   5  12  11        -0.0051723764
      5   3  11  12        -0.0051723764
      3   4   9  18         0.0051657264
      4   3  18   9         0.0051657264
      2   3   8   9        -0.0051390642
      3   2   9   8        -0.0051390642
      3   5  16   2         0.0051384421
      5   3   2  16         0.0051384421
      3   6  16  17         0.0051317377
      6   3  17  16         0.0051317377
      2   5   0   0         0.0051214753
      5   2   0   0         0.0051214753
      2   2   5   5        -0.0051210524
      3   6  12  17         0.0051187264
      6   3  17  12         0.0051187264
      5   5  22  22        -0.0051086521
      3   3   0  26         0.0051054202
      3   3  26   0         0.0051054202
      6   6   6   9        -0.0051036638
      6   6   9   6        -0.0051036638
      2   7  25   0        -0.0050946846
      7   2   0  25        -0.0050946846
      2   4  10   1         0.0050929635
      4   2   1  10         0.0050929635
      6   7   0  15        -0.0050801564
      7   6  15   0        -0.0050801564
      2   2   8   8        -0.0050789861
      3   6  11  15         0.0050738198
      6   3  15  11         0.0050738198
      2   3   8   0        -0.0050637734
      3   2   0   8        -0.0050637734
      4   4  13  13        -0.0050505282
      4   5  11  15        -0.0050499872
      5   4  15  11        -0.0050499872
      3   4  10   5         0.0050404500
      4   3   5  10         0.0050404500
      3   5   0  17         0.0050376218
      5   3  17   0         0.0050376218
      3   4  14  17         0.0050343274
      4   3  17  14         0.0050343274
      2   3  20  18        -0.0050314914
      3   2  18  20        -0.0050314914
      5   7   4   9         0.0050296608
      7   5   9   4         0.0050296608
      6   7  20  24         0.0050285058
      7   6  24  20         0.0050285058
      4   7  18  11        -0.0050241139
      7   4  11  18        -0.0050241139
      3   3  23  23        -0.0050229509
      5   7  19   2         0.0050197046
      7   5   2  19         0.0050197046
      2   3  14  16        -0.0050191148
      3   2  16  14        -0.0050191148
      3   3  22  22        -0.0050057354
      3   6  10  13         0.0050028534
      6   3  13  10         0.0050028534
      3   5   5   4         0.0049984785
      5   3   4   5         0.0049984785
      4   6  22  23        -0.0049958347
      6   4  23  22        -0.0049958347
      7   7   1   4        -0.0049876075
      7   7   4   1        -0.0049876075
      3   3   5  11        -0.0049786209
      3   3  11   5        -0.0049786209
      5   7   0  12        -0.0049781259
      7   5  12   0        -0.0049781259
      3   6   3  21        -0.0049683186
      6   3  21   3        -0.0049683186
      3   5  12  24         0.0049557219
      5   3  24  12         0.0049557219
      2   3   2   1        -0.0049498666
      3   2   1   2        -0.0049498666
      6   7   4  18        -0.0049452074
      7   6  18   4        -0.0049452074
      3   4  19  20         0.0049388623
      4   3  20  19         0.0049388623
      4   6   5   1        -0.0049387548
      6   4   1   5        -0.0049387548
      4   6  25  21         0.0049366446
      6   4  21  25         0.0049366446
      4   6   7   9        -0.0049156787
      6   4   9   7        -0.0049156787
      5   6  11  17         0.0049123556
      6   5  17  11         0.0049123556
      2   4  12   7        -0.0049109963
      4   2   7  12        -0.0049109963
      3   6  17   4         0.0049063278
      6   3   4  17         0.0049063278
      2   2  21  21        -0.0049049186
      4   5  10   4        -0.0049003544
      5   4   4  10        -0.0049003544
      2   3   2  13        -0.0049000311
      3   2  13   2        -0.0049000311
      2   2   2   2        -0.0048963708
      3   6  15  11         0.0048954146
      6   3  11  15         0.0048954146
      2   7  12  32        -0.0048872037
      7   2  32  12        -0.0048872037
      5   6   3  12        -0.0048814477
      6   5  12   3        -0.0048814477
      4   5   3  14         0.0048709552
      5   4  14   3         0.0048709552
      3   4  10   2         0.0048666093
      4   3   2  10         0.0048666093
      3   3   6   6        -0.0048610306
      4   6  21   1        -0.0048501081
      6   4   1  21        -0.0048501081
      2   3  11  13        -0.0048491792
      3   2  13  11        -0.0048491792
      5   5  10  10        -0.0048461824
      4   6   1   5        -0.0048457435
      6   4   5   1        -0.0048457435
      5   7  21   8         0.0048429859
      7   5   8  21         0.0048429859
      6   7  20  11        -0.0048369471
      7   6  11  20        -0.0048369471
      4   5  20  26         0.0048340720
      5   4  26  20         0.0048340720
      5   5   2   5        -0.0048257999
      5   5   5   2        -0.0048257999
      5   7  25   9        -0.0048232842
      7   5   9  25        -0.0048232842
      5   7  25   0        -0.0048198757
      7   5   0  25        -0.0048198757
      3   7   4  10        -0.0048191609
      7   3  10   4        -0.0048191609
      2   6   9  18         0.0048140065
      6   2  18   9         0.0048140065
      3   4  16  15        -0.0048067841
      4   3  15  16        -0.0048067841
      5   7   2  19         0.0047933444
      7   5  19   2         0.0047933444
      2   4  10  13         0.0047865885
      4   2  13  10         0.0047865885
      2   5  14  14         0.0047859752
      5   2  14  14         0.0047859752
      2   3  13   2        -0.0047820903
      3   2   2  13        -0.0047820903
      2   7   0  25        -0.0047710121
      7   2  25   0        -0.0047710121
      3   4  15   4        -0.0047637318
      4   3   4  15        -0.0047637318
      4   6  23  22        -0.0047557672
      6   4  22  23        -0.0047557672
      3   4  14  10         0.0047541385
      4   3  10  14         0.0047541385
      5   6  10  14        -0.0047511893
      6   5  14  10        -0.0047511893
      2   5  12  35        -0.0047468850
      5   2  35  12        -0.0047468850
      2   5  29  12        -0.0047467952
      5   2  12  29        -0.0047467952
      4   5  10  25         0.0047436773
      5   4  25  10         0.0047436773
      3   4  12  22         0.0047410935
      4   3  22  12         0.0047410935
      3   5   3  10        -0.0047270717
      5   3  10   3        -0.0047270717
      5   6  21  10        -0.0047256538
      6   5  10  21        -0.0047256538
      3   4  21  10         0.0047225076
      4   3  10  21         0.0047225076
      2   3  16  14        -0.0047196806
      3   2  14  16        -0.0047196806
      5   5   1  13        -0.0047188553
      5   5  13   1        -0.0047188553
      3   6   9  20         0.0047109909
      6   3  20   9         0.0047109909
      6   7  17  19        -0.0046990379
      7   6  19  17        -0.0046990379
      2   2  20  20        -0.0046986632
      2   6  15  12        -0.0046948248
      6   2  12  15        -0.0046948248
      4   6   1  21        -0.0046910912
      6   4  21   1        -0.0046910912
      3   4   3  16        -0.0046906952
      4   3  16   3        -0.0046906952
      2   6   2  10         0.0046864614
      6   2  10   2         0.0046864614
      2   2   6   6        -0.0046667803
      2   5  25  12        -0.0046650653
      5   2  12  25        -0.0046650653
      1   1  42  42        -0.0046466215
      4   5  15  21         0.0046459238
      5   4  21  15         0.0046459238
      0   0  42  42        -0.0046431955
      0   1  42  43        -0.0046407253
      1   0  43  42        -0.0046407253
      0   1  43  42        -0.0046406590
      1   0  42  43        -0.0046406590
      1   1  43  43        -0.0046389380
      4   5  23  12        -0.0046367864
      5   4  12  23        -0.0046367864
      0   0  43  43        -0.0046355960
      4   6  13   2        -0.0046293653
      6   4   2  13        -0.0046293653
      3   5  15  17        -0.0046234188
      5   3  17  15        -0.0046234188
      5   5  12  25        -0.0046194112
      5   5  25  12        -0.0046194112
      2   5   4  12        -0.0046068011
      5   2  12   4        -0.0046068011
      3   6   6  11        -0.0045994607
      6   3  11   6        -0.0045994607
      6   6   9   9        -0.0045992618
      6   6   1  13        -0.0045947128
      6   6  13   1        -0.0045947128
      2   2  10  10        -0.0045894616
      2   7  12  26        -0.0045767593
      7   2  26  12        -0.0045767593
      2   3  11   1        -0.0045594473
      3   2   1  11        -0.0045594473
      4   4  25  25        -0.0045583989
      2   4   6  11        -0.0045368864
      4   2  11   6        -0.0045368864
      5   6  26  18         0.0045350491
      6   5  18  26         0.0045350491
      2   2   7   7        -0.0045331289
      4   5  17  16        -0.0045155287
      5   4  16  17        -0.0045155287
      2   4   9  20         0.0045078161
      4   2  20   9         0.0045078161
      5   7  16   0         0.0044998087
      7   5   0  16         0.0044998087
      5   7  11  19         0.0044932723
      7   5  19  11         0.0044932723
      3   4   6   1        -0.0044788160
      4   3   1   6        -0.0044788160
      2   4   2   3        -0.0044744643
      4   2   3   2        -0.0044744643
      5   5  11  21         0.0044731048
      5   5  21  11         0.0044731048
      3   4  25   3         0.0044721573
      4   3   3  25         0.0044721573
      3   7  10   4        -0.0044616074
      7   3   4  10        -0.0044616074
      6   7  16  18        -0.0044452327
      7   6  18  16        -0.0044452327
      5   6  21  17        -0.0044388518
      6   5  17  21        -0.0044388518
      2   5  14   5         0.0044358147
      5   2   5  14         0.0044358147
      6   7  18  12         0.0044235456
      7   6  12  18         0.0044235456
      2   5  13  25        -0.0044086705
      5   2  25  13        -0.0044086705
      3   6  26  20        -0.0044068272
      6   3  20  26        -0.0044068272
      2   2  24  24        -0.0044026639
      7   7  11  24         0.0044025686
      7   7  24  11         0.0044025686
      5   6  14  17        -0.0043911540
      6   5  17  14        -0.0043911540
      3   3   3  15        -0.0043889054
      3   3  15   3        -0.0043889054
      3   6  13  17         0.0043871680
      6   3  17  13         0.0043871680
      7   7   1  13        -0.0043869943
      7   7  13   1        -0.0043869943
      6   6   3   6        -0.0043855916
      6   6   6   3        -0.0043855916
      6   6   2   5        -0.0043800882
      6   6   5   2        -0.0043800882
      2   4  13  17         0.0043739735
      4   2  17  13         0.0043739735
      2   7   8  24        -0.0043729022
      7   2  24   8        -0.0043729022
      2   4   7   1        -0.0043678155
      4   2   1   7        -0.0043678155
      2   5   6  15        -0.0043661566
      5   2  15   6        -0.0043661566
      4   7   0  17         0.0043567917
      7   4  17   0         0.0043567917
      4   5  10   1        -0.0043534980
      5   4   1  10        -0.0043534980
      2   3   1   2        -0.0043520640
      3   2   2   1        -0.0043520640
      6   6   3   9        -0.0043426409
      6   6   9   3        -0.0043426409
      4   7   4   2         0.0043424088
[...]
      6   2   3  43         0.0000011115
      0   2  23  28         0.0000011110
      2   0  28  23         0.0000011110
      1   1  31  33        -0.0000011002
      1   1  33  31        -0.0000011002
      2   7  43   6        -0.0000010897
      7   2   6  43        -0.0000010897
      0   7  18  26        -0.0000010873
      7   0  26  18        -0.0000010873
      0   0  18  29        -0.0000010816
      0   0  29  18        -0.0000010816
      6   7  42  21        -0.0000010614
      7   6  21  42        -0.0000010614
      0   7  43  22         0.0000010513
      7   0  22  43         0.0000010513
      0   5  18  13         0.0000010477
      5   0  13  18         0.0000010477
      1   6   1  28        -0.0000010464
      6   1  28   1        -0.0000010464
      0   1   0  23        -0.0000010449
      1   0  23   0        -0.0000010449
      1   2   6  39         0.0000010341
      2   1  39   6         0.0000010341
      3   6  43  28         0.0000010288
      6   3  28  43         0.0000010288
      1   5  18  42        -0.0000010233
      5   1  42  18        -0.0000010233
      1   4  24  19        -0.0000010117
      4   1  19  24        -0.0000010117
      0   2   5  14         0.0000010110
      2   0  14   5         0.0000010110
      0   2   3  26         0.0000010010
      2   0  26   3         0.0000010010
      0   6  31  28        -0.0000009969
      6   0  28  31        -0.0000009969
      1   5  13  20         0.0000009878
      5   1  20  13         0.0000009878
      0   7  42  23        -0.0000009840
      7   0  23  42        -0.0000009840
      1   7  43  34         0.0000009755
      7   1  34  43         0.0000009755
      2   6  43  26        -0.0000009724
      6   2  26  43        -0.0000009724
      4   7  36  43         0.0000009663
      7   4  43  36         0.0000009663
      1   4  33  28        -0.0000009582
      4   1  28  33        -0.0000009582
      1   7  43   8         0.0000009559
      7   1   8  43         0.0000009559
      2   5  43   1        -0.0000009540
      5   2   1  43        -0.0000009540
      4   4  31  42        -0.0000009394
      4   4  42  31        -0.0000009394
      3   4  17  42        -0.0000009367
      4   3  42  17        -0.0000009367
      3   5  43  24         0.0000009330
      5   3  24  43         0.0000009330
      1   7  42   6        -0.0000009257
      7   1   6  42        -0.0000009257
      1   4  31  23        -0.0000009249
      4   1  23  31        -0.0000009249
      1   6  20  37        -0.0000009199
      6   1  37  20        -0.0000009199
      1   7  43   7        -0.0000009117
      7   1   7  43        -0.0000009117
      1   4  43  26        -0.0000009116
      4   1  26  43        -0.0000009116
      0   0  20  20        -0.0000009080
      4   5   6  42        -0.0000009054
      5   4  42   6        -0.0000009054
      0   4  42   6        -0.0000008747
      4   0   6  42        -0.0000008747
      5   6  42  23         0.0000008746
      6   5  23  42         0.0000008746
      0   4  42  27        -0.0000008558
      4   0  27  42        -0.0000008558
      6   7   2  42         0.0000008503
      7   6  42   2         0.0000008503
      4   7  43  24        -0.0000008420
      7   4  24  43        -0.0000008420
      1   6  43   7         0.0000008353
      6   1   7  43         0.0000008353
      0   4   6   2         0.0000008352
      4   0   2   6         0.0000008352
      1   5  28   6        -0.0000008293
      5   1   6  28        -0.0000008293
      6   7  43  29         0.0000008202
      7   6  29  43         0.0000008202
      5   7  42  10         0.0000008187
      7   5  10  42         0.0000008187
      0   6  20  23        -0.0000008177
      6   0  23  20        -0.0000008177
      0   3  21  29        -0.0000008077
      3   0  29  21        -0.0000008077
      1   4  13   9         0.0000008018
      4   1   9  13         0.0000008018
      4   7  43  21        -0.0000007996
      7   4  21  43        -0.0000007996
      1   5  18  14        -0.0000007989
      5   1  14  18        -0.0000007989
      1   6  22  14        -0.0000007886
      6   1  14  22        -0.0000007886
      0   1  31  30         0.0000007859
      1   0  30  31         0.0000007859
      1   6  40  32         0.0000007831
      6   1  32  40         0.0000007831
      3   4  31  39         0.0000007827
      4   3  39  31         0.0000007827
      0   4  43  10        -0.0000007809
      4   0  10  43        -0.0000007809
      0   2  30  13        -0.0000007777
      2   0  13  30        -0.0000007777
      0   4  13  28         0.0000007769
      4   0  28  13         0.0000007769
      1   4  24   8        -0.0000007744
      4   1   8  24        -0.0000007744
      1   1  20  20        -0.0000007661
      1   7  24   3        -0.0000007650
      7   1   3  24        -0.0000007650
      1   6  31  22        -0.0000007641
      6   1  22  31        -0.0000007641
      4   5  42   0         0.0000007613
      5   4   0  42         0.0000007613
      1   7  33  37        -0.0000007589
      7   1  37  33        -0.0000007589
      1   7   2  27         0.0000007581
      7   1  27   2         0.0000007581
      2   6  15  43         0.0000007535
      6   2  43  15         0.0000007535
      0   7   8  33         0.0000007512
      7   0  33   8         0.0000007512
      2   3  31  43        -0.0000007429
      3   2  43  31        -0.0000007429
      1   5  43  20        -0.0000007426
      5   1  20  43        -0.0000007426
      1   3  31   5        -0.0000007355
      3   1   5  31        -0.0000007355
      0   4  43   7         0.0000007352
      4   0   7  43         0.0000007352
      0   2  42  20        -0.0000007342
      2   0  20  42        -0.0000007342
      0   4  11  15         0.0000007269
      4   0  15  11         0.0000007269
      1   5  42  18        -0.0000007239
      5   1  18  42        -0.0000007239
      3   5  18  42        -0.0000007220
      5   3  42  18        -0.0000007220
      1   3  42  20        -0.0000007204
      3   1  20  42        -0.0000007204
      0   4  23  18        -0.0000007162
      4   0  18  23        -0.0000007162
      1   5  21  18        -0.0000007079
      5   1  18  21        -0.0000007079
      0   7  42  39        -0.0000007008
      7   0  39  42        -0.0000007008
      3   5  20  16        -0.0000007003
      5   3  16  20        -0.0000007003
      0   3   1  20         0.0000007002
      3   0  20   1         0.0000007002
      6   7  33  42        -0.0000006937
      7   6  42  33        -0.0000006937
      1   3  20  42        -0.0000006934
      3   1  42  20        -0.0000006934
      0   6  43  26         0.0000006923
      6   0  26  43         0.0000006923
      0   6  19  14         0.0000006898
      6   0  14  19         0.0000006898
      1   7  42  27        -0.0000006852
      7   1  27  42        -0.0000006852
      0   3   0  39         0.0000006843
      3   0  39   0         0.0000006843
      0   1  18  24        -0.0000006842
      1   0  24  18        -0.0000006842
      0   4  42   0        -0.0000006803
      4   0   0  42        -0.0000006803
      5   7  40  39        -0.0000006725
      7   5  39  40        -0.0000006725
      1   1  11  20        -0.0000006646
      1   1  20  11        -0.0000006646
      1   5  43  36         0.0000006555
      5   1  36  43         0.0000006555
      1   2  43  20        -0.0000006489
      2   1  20  43        -0.0000006489
      1   4  18  37         0.0000006471
      4   1  37  18         0.0000006471
      0   4  26   2         0.0000006408
      4   0   2  26         0.0000006408
      1   4  18  22         0.0000006399
      4   1  22  18         0.0000006399
      0   4  24  26         0.0000006376
      4   0  26  24         0.0000006376
      0   0  21  24        -0.0000006372
      0   0  24  21        -0.0000006372
      0   4  24  37         0.0000006328
      4   0  37  24         0.0000006328
      0   6  42  28        -0.0000006244
      6   0  28  42        -0.0000006244
      1   4  42   8        -0.0000006202
      4   1   8  42        -0.0000006202
      1   7  43  23         0.0000006189
      7   1  23  43         0.0000006189
      4   7  43  33        -0.0000006036
      7   4  33  43        -0.0000006036
      1   4   1   9         0.0000005950
      4   1   9   1         0.0000005950
      1   2   3  28        -0.0000005938
      2   1  28   3        -0.0000005938
      0   2  24   2         0.0000005781
      2   0   2  24         0.0000005781
      0   0  11  20        -0.0000005738
      0   0  20  11        -0.0000005738
      1   3  20  21        -0.0000005639
      3   1  21  20        -0.0000005639
      2   3  32  39        -0.0000005633
      3   2  39  32        -0.0000005633
      0   2  28  34        -0.0000005537
      2   0  34  28        -0.0000005537
      0   7  43   9         0.0000005513
      7   0   9  43         0.0000005513
      1   1  15  27         0.0000005442
      1   1  27  15         0.0000005442
      0   6  43  15         0.0000005252
      6   0  15  43         0.0000005252
      0   5  42  33         0.0000005214
      5   0  33  42         0.0000005214
      2   3  42  30        -0.0000005198
      3   2  30  42        -0.0000005198
      0   3  12  20         0.0000005191
      3   0  20  12         0.0000005191
      0   5  31  42        -0.0000005147
      5   0  42  31        -0.0000005147
      1   4  42  19        -0.0000005076
      4   1  19  42        -0.0000005076
      0   6  27  43        -0.0000005028
      6   0  43  27        -0.0000005028
      3   4  28  42         0.0000005024
      4   3  42  28         0.0000005024
      1   5  31   1        -0.0000005005
      5   1   1  31        -0.0000005005
      0   4  28  43        -0.0000004954
      4   0  43  28        -0.0000004954
      1   4  28   2        -0.0000004925
      4   1   2  28        -0.0000004925
      6   7  42   2         0.0000004888
      7   6   2  42         0.0000004888
      0   0   5  31        -0.0000004849
      0   0  31   5        -0.0000004849
      4   6  20  43        -0.0000004802
      6   4  43  20        -0.0000004802
      0   5  43  18        -0.0000004794
      5   0  18  43        -0.0000004794
      3   3  24  42         0.0000004750
      3   3  42  24         0.0000004750
      1   4  40  28         0.0000004736
      4   1  28  40         0.0000004736
      0   1  24  18        -0.0000004673
      1   0  18  24        -0.0000004673
      1   6  27  42        -0.0000004661
      6   1  42  27        -0.0000004661
      0   6  27   4         0.0000004648
      6   0   4  27         0.0000004648
      2   7  43  15        -0.0000004629
      7   2  15  43        -0.0000004629
      1   3  26  27         0.0000004596
      3   1  27  26         0.0000004596
      1   5  18  36         0.0000004575
      5   1  36  18         0.0000004575
      0   2  11  31         0.0000004542
      2   0  31  11         0.0000004542
      0   3  32  34         0.0000004505
      3   0  34  32         0.0000004505
      0   1  26  17         0.0000004497
      1   0  17  26         0.0000004497
      0   5  42  24         0.0000004354
      5   0  24  42         0.0000004354
      0   0   4  25        -0.0000004295
      0   0  25   4        -0.0000004295
      0   5  27   9        -0.0000004171
      5   0   9  27        -0.0000004171
      1   3  20  14         0.0000004155
      3   1  14  20         0.0000004155
      1   4  21  39         0.0000004085
      4   1  39  21         0.0000004085
      0   5  42  36        -0.0000004061
      5   0  36  42        -0.0000004061
      4   7  41  42         0.0000004037
      7   4  42  41         0.0000004037
      0   6  43   9         0.0000004022
      6   0   9  43         0.0000004022
      1   6  41  28        -0.0000004013
      6   1  28  41        -0.0000004013
      2   3  43  20        -0.0000003961
      3   2  20  43        -0.0000003961
      0   0  15  27         0.0000003955
      0   0  27  15         0.0000003955
      0   5  13  18         0.0000003929
      5   0  18  13         0.0000003929
      5   7  42  23        -0.0000003896
      7   5  23  42        -0.0000003896
      0   6  26  38        -0.0000003762
      6   0  38  26        -0.0000003762
      0   4   2   9         0.0000003609
      4   0   9   2         0.0000003609
      1   4  28  42        -0.0000003592
      4   1  42  28        -0.0000003592
      1   4  42  28         0.0000003531
      4   1  28  42         0.0000003531
      1   3  30  25         0.0000003519
      3   1  25  30         0.0000003519
      2   5  40  42         0.0000003482
      5   2  42  40         0.0000003482
      1   6  43   8         0.0000003451
      6   1   8  43         0.0000003451
      3   5  42  18        -0.0000003431
      5   3  18  42        -0.0000003431
      0   3  20  43        -0.0000003411
      3   0  43  20        -0.0000003411
      4   5   0  42        -0.0000003377
      5   4  42   0        -0.0000003377
      6   7   1  43        -0.0000003337
      7   6  43   1        -0.0000003337
      3   5  42  43        -0.0000003284
      5   3  43  42        -0.0000003284
      2   4  42   9         0.0000003243
      4   2   9  42         0.0000003243
      0   6  43   6        -0.0000003228
      6   0   6  43        -0.0000003228
      7   7  33  42         0.0000003222
      7   7  42  33         0.0000003222
      1   6  11  27        -0.0000003208
      6   1  27  11        -0.0000003208
      0   2  19  39         0.0000003204
      2   0  39  19         0.0000003204
      0   7  19  33         0.0000003185
      7   0  33  19         0.0000003185
      1   2  23  32         0.0000003180
      2   1  32  23         0.0000003180
      0   3  43  20        -0.0000003176
      3   0  20  43        -0.0000003176
      1   5  11  18        -0.0000003080
      5   1  18  11        -0.0000003080
      5   6  43  26        -0.0000003002
      6   5  26  43        -0.0000003002
      0   7  27  35        -0.0000002994
      7   0  35  27        -0.0000002994
      1   5  13  31        -0.0000002963
      5   1  31  13        -0.0000002963
      0   3   1  31        -0.0000002810
      3   0  31   1        -0.0000002810
      3   7   7   1        -0.0000002754
      7   3   1   7        -0.0000002754
      5   6  17  24        -0.0000002707
      6   5  24  17        -0.0000002707
      0   4  42   9         0.0000002652
      4   0   9  42         0.0000002652
      5   7  17  42        -0.0000002641
      7   5  42  17        -0.0000002641
      0   5  18   4         0.0000002630
      5   0   4  18         0.0000002630
      1   4   2  28         0.0000002602
      4   1  28   2         0.0000002602
      1   4   1  26        -0.0000002559
      4   1  26   1        -0.0000002559
      0   4  43  28         0.0000002409
      4   0  28  43         0.0000002409
      0   4  43  19         0.0000002369
      4   0  19  43         0.0000002369
      1   4  42  10        -0.0000002349
      4   1  10  42        -0.0000002349
      1   4  13   0        -0.0000002212
      4   1   0  13        -0.0000002212
      1   4  43   9        -0.0000002169
      4   1   9  43        -0.0000002169
      0   4  30  28         0.0000002055
      4   0  28  30         0.0000002055
      2   6  42   8        -0.0000001959
      6   2   8  42        -0.0000001959
      1   4  36   8        -0.0000001893
      4   1   8  36        -0.0000001893
      0   7  42  19        -0.0000001831
      7   0  19  42        -0.0000001831
      1   1  21  24        -0.0000001815
      1   1  24  21        -0.0000001815
      1   4  14  28         0.0000001796
      4   1  28  14         0.0000001796
      4   5  43  28        -0.0000001684
      5   4  28  43        -0.0000001684
      4   6  18  42        -0.0000001681
      6   4  42  18        -0.0000001681
      1   3  25  18        -0.0000001646
      3   1  18  25        -0.0000001646
      0   3  20  13         0.0000001620
      3   0  13  20         0.0000001620
      0   5  41  18         0.0000001613
      5   0  18  41         0.0000001613
      3   6   8  43        -0.0000001529
      6   3  43   8        -0.0000001529
      1   2   5   1        -0.0000001452
      2   1   1   5        -0.0000001452
      1   7  24  15        -0.0000001439
      7   1  15  24        -0.0000001439
      1   7  28  35         0.0000001387
      7   1  35  28         0.0000001387
      6   7  36  42        -0.0000001353
      7   6  42  36        -0.0000001353
      0   6  23  14         0.0000001323
      6   0  14  23         0.0000001323
      0   5  20  24         0.0000001294
      5   0  24  20         0.0000001294
      1   6  27  36         0.0000001288
      6   1  36  27         0.0000001288
      0   3   5  30         0.0000001284
      3   0  30   5         0.0000001284
      0   6  43  27        -0.0000001249
      6   0  27  43        -0.0000001249
      1   1  24  42        -0.0000001180
      1   1  42  24        -0.0000001180
      1   3   5  20         0.0000001158
      3   1  20   5         0.0000001158
      0   7  43  15         0.0000001152
      7   0  15  43         0.0000001152
      1   4  43   6         0.0000001137
      4   1   6  43         0.0000001137
      0   4  11   9         0.0000001028
      4   0   9  11         0.0000001028
      0   6  43  32         0.0000001024
      6   0  32  43         0.0000001024
      1   2  27  28         0.0000000987
      2   1  28  27         0.0000000987
      4   5  38  10         0.0000000987
      5   4  10  38         0.0000000987
      1   4   2   8        -0.0000000982
      4   1   8   2        -0.0000000982
      1   7  26  11         0.0000000961
      7   1  11  26         0.0000000961
      0   4  43   8        -0.0000000915
      4   0   8  43        -0.0000000915
      0   5  43  16        -0.0000000681
      5   0  16  43        -0.0000000681
      1   5  18   2         0.0000000651
      5   1   2  18         0.0000000651
      2   3  18  42        -0.0000000610
      3   2  42  18        -0.0000000610
      0   7  43   6        -0.0000000591
      7   0   6  43        -0.0000000591
      3   4  43  26         0.0000000551
      4   3  26  43         0.0000000551
      1   3  31   2         0.0000000551
      3   1   2  31         0.0000000551
      0   0  24  42         0.0000000540
      0   0  42  24         0.0000000540
      0   6  42   7        -0.0000000437
      6   0   7  42        -0.0000000437
      1   5  31  43         0.0000000420
      5   1  43  31         0.0000000420
      0   2  23  34        -0.0000000157
      2   0  34  23        -0.0000000157
      1   4  19   2        -0.0000000135
      4   1   2  19        -0.0000000135

    SCF energy       (wfn)                    =  -78.033019747674714
    Reference energy (file100)                =  -78.033019747674842

    Opposite-spin MP2 correlation energy      =   -0.244455386706096
    Same-spin MP2 correlation energy          =   -0.060448481997312
    MP2 correlation energy                    =   -0.304903868703408
      * MP2 total energy                      =  -78.337923616378248

    Opposite-spin CCSD correlation energy     =   -0.281346082742001
    Same-spin CCSD correlation energy         =   -0.054950834435951
    CCSD correlation energy                   =   -0.336296917177953
      * CCSD total energy                     =  -78.369316664852789


*** tstop() called on Berts-MacBook-Pro.local at Wed Dec  6 23:20:59 2017
Module time:
	user time   =     147.82 seconds =       2.46 minutes
	system time =       4.68 seconds =       0.08 minutes
	total time  =        153 seconds =       2.55 minutes
Total time:
	user time   =     203.61 seconds =       3.39 minutes
	system time =       5.96 seconds =       0.10 minutes
	total time  =        210 seconds =       3.50 minutes

*** Psi4 exiting successfully. Buy a developer a beer!
