
    -----------------------------------------------------------------------
          Psi4: An Open-Source Ab Initio Electronic Structure Package
                               Psi4 1.1 release

                         Git: Rev {HEAD} add49b9 


    R. M. Parrish, L. A. Burns, D. G. A. Smith, A. C. Simmonett,
    A. E. DePrince III, E. G. Hohenstein, U. Bozkaya, A. Yu. Sokolov,
    R. Di Remigio, R. M. Richard, J. F. Gonthier, A. M. James,
    H. R. McAlexander, A. Kumar, M. Saitow, X. Wang, B. P. Pritchard,
    P. Verma, H. F. Schaefer III, K. Patkowski, R. A. King, E. F. Valeev,
    F. A. Evangelista, J. M. Turney, T. D. Crawford, and C. D. Sherrill,
    J. Chem. Theory Comput. in press (2017).
    (doi: 10.1021/acs.jctc.7b00174)

    -----------------------------------------------------------------------


    Psi4 started on: Wednesday, 06 December 2017 10:23PM

    Process ID:  12069
    PSIDATADIR: /anaconda3/share/psi4
    Memory:     500.0 MiB
    Threads:    1
    
  ==> Input File <==

--------------------------------------------------------------------------
"""This is a template for psi4 input format."""
import numpy
import sys

from openfermion.config import *
from openfermion.ops._interaction_tensor import (one_body_basis_change,
                                              two_body_basis_change)
from openfermion.hamiltonians import MolecularData
from numpy import array

sys.path.append('/Users/wadejong/Desktop/Quantum-Computing/OpenFermion/OpenFermion-Psi4/openfermionpsi4')
from _psi4_conversion_functions import *

# Set number of threads in PSI4
set_num_threads(8)

# Set memory that job can use in megabytes.
memory 8000 mb

# Initialize molecular data.
_description = 'ethylene_1.49226'
if _description == 'None':
    _description = None
molecule = MolecularData([['C', array([ 0.      ,  0.      ,  0.673055])], ['C', array([ 0.      ,  0.      , -0.673055])], ['H', array([ 0.      ,  0.934981,  1.246807])], ['H', array([ 0.      , -0.934981,  1.246807])], ['H', array([ 0.93209877, -0.07335776, -1.246807  ])], ['H', array([-0.93209877,  0.07335776, -1.246807  ])]],
                         'DZP',
                         1,
                         0,
                         _description,
                          filename='/Users/wadejong/Desktop/QCQCSiddiqi/8_Qubit_Simulation/data/H4-C2_DZP_singlet_ethylene_1.49226')

# Set molecular geometry and symmetry.
molecule mol {
C 0.0 0.0 0.673055
C 0.0 0.0 -0.673055
H 0.0 0.934981 1.246807
H 0.0 -0.934981 1.246807
H 0.9320987656111337 -0.07335776378271625 -1.246807
H -0.9320987656111337 0.07335776378271625 -1.246807
symmetry c1
}
mol.set_multiplicity(1)
mol.set_molecular_charge(0)

# Set reference and guess.
if molecule.multiplicity == 1:
    set reference rhf
    set guess sad
    set sad_frac_occ true
else:
    set reference rohf
    set guess sad
    set sad_frac_occ true

# Set global parameters of calculation.
set globals {
    basis DZP
    freeze_core false
    fail_on_maxiter true
    df_scf_guess false
    guess sad
    sad_frac_occ true
    opdm false
    tpdm false
    soscf true
    scf_type pk
    diis true
    maxiter 1e6
    num_amps_print 1e6
    r_convergence 1e-7
    d_convergence 1e-7
    e_convergence 1e-7
    ints_tolerance EQUALITY_TOLERANCE
    damping_percentage 0
}

# Run self-consistent field (SCF) calculation.
if True:
    try:

        hf_energy, hf_wavefunction = energy('scf', return_wfn=True)
        scf_wfn = hf_wavefunction
        if True:
            print('Hartree-Fock energy for {} ({} electrons) is {}.'.format(
                molecule.name, molecule.n_electrons, hf_energy))
    except:
        if True:
            print('WARNING: SCF calculation failed.')
        else:
            raise
    else:
        # Get orbitals and Fock matrix.
        molecule.hf_energy = hf_energy
        molecule.nuclear_repulsion = mol.nuclear_repulsion_energy()
        molecule.canonical_orbitals = numpy.asarray(hf_wavefunction.Ca())
        molecule.n_orbitals = molecule.canonical_orbitals.shape[0]
        molecule.n_qubits = 2 * molecule.n_orbitals
        molecule.orbital_energies = numpy.asarray(hf_wavefunction.epsilon_a())
        molecule.fock_matrix = numpy.asarray(hf_wavefunction.Fa())

        # Get integrals using MintsHelper.
        mints = MintsHelper(hf_wavefunction.basisset())
        molecule.one_body_integrals = one_body_basis_change(
            numpy.asarray(mints.ao_kinetic()), molecule.canonical_orbitals)
        molecule.one_body_integrals += one_body_basis_change(
            numpy.asarray(mints.ao_potential()), molecule.canonical_orbitals)
        two_body_integrals = numpy.asarray(mints.ao_eri())
        two_body_integrals.reshape((molecule.n_orbitals, molecule.n_orbitals,
                                    molecule.n_orbitals, molecule.n_orbitals))
        two_body_integrals = numpy.einsum('psqr', two_body_integrals)
        two_body_integrals = two_body_basis_change(
            two_body_integrals, molecule.canonical_orbitals)
        molecule.two_body_integrals = two_body_integrals
        molecule.save()


# Perform MP2 energy calculation if there are at least two electrons.
if True:
    try:
        assert molecule.n_electrons > 1
        mp2_energy = energy('mp2',ref_wfn=scf_wfn)
        if True:
            print('MP2 energy for {} ({} electrons) is {}.'.format(
                molecule.name, molecule.n_electrons, mp2_energy))
    except:
        if True:
            print('WARNING: MP2 calculation failed.')
        else:
            raise
    else:
        molecule.mp2_energy = mp2_energy
        molecule.save()


# Perform configuration interaction singles and doubles (CISD) calculation.
if True:
    set qc_module detci
    try:
        cisd_energy, cisd_wavefunction = energy('cisd', ref_wfn=scf_wfn, return_wfn=True)
        if True:
            print('CISD energy for {} ({} electrons) is {}.'.format(
                molecule.name, molecule.n_electrons, cisd_energy))
    except:
        if True:
            print('WARNING: CISD calculation failed.')
        else:
            raise
    else:
        # For the functions below, "a" and "b" refer to "up and "down" spins.
        molecule.cisd_energy = cisd_energy

        # Get 1-RDM from CISD calculation.
        """cisd_one_rdm_a = numpy.array(cisd_wavefunction.get_opdm(
            0, 0, 'A', True)).reshape(molecule.n_orbitals, molecule.n_orbitals)
        cisd_one_rdm_b = numpy.array(cisd_wavefunction.get_opdm(
            0, 0, 'B', True)).reshape(molecule.n_orbitals, molecule.n_orbitals)

        # Get 2-RDM from CISD calculation.
        cisd_two_rdm_aa = numpy.array(cisd_wavefunction.get_tpdm(
            'AA', False)).reshape(molecule.n_orbitals, molecule.n_orbitals,
                                  molecule.n_orbitals, molecule.n_orbitals)
        cisd_two_rdm_ab = numpy.array(cisd_wavefunction.get_tpdm(
            'AB', False)).reshape(molecule.n_orbitals, molecule.n_orbitals,
                                  molecule.n_orbitals, molecule.n_orbitals)
        cisd_two_rdm_bb = numpy.array(cisd_wavefunction.get_tpdm(
            'BB', False)).reshape(molecule.n_orbitals, molecule.n_orbitals,
                                  molecule.n_orbitals, molecule.n_orbitals)

        # Get overall RDMs.
        cisd_one_rdm, cisd_two_rdm = unpack_spatial_rdm(
            cisd_one_rdm_a, cisd_one_rdm_b, cisd_two_rdm_aa,
            cisd_two_rdm_ab, cisd_two_rdm_bb)

        # Store 1-RDM in molecule file, 2-RDM separately in other file.
        molecule.cisd_one_rdm = cisd_one_rdm
        molecule.cisd_two_rdm = cisd_two_rdm
        molecule.save()"""


# Perform exact diagonalization.
if False:
    set qc_module detci
    try:
        fci_energy, fci_wavefunction = energy('fci', ref_wfn=scf_wfn, return_wfn=True)
        if True:
            print('FCI energy for {} ({} electrons) is {}.'.format(
                molecule.name, molecule.n_electrons, fci_energy))
    except:
        if True:
            print('WARNING: FCI calculation failed.')
        else:
            raise
    else:
        # For the functions below, "a" and "b" refer to "up and "down" spins.
        molecule.fci_energy = fci_energy

        # Get 1-RDM from FCI calculation.
        """fci_one_rdm_a = numpy.array(fci_wavefunction.get_opdm(
            0, 0, 'A', True)).reshape(molecule.n_orbitals, molecule.n_orbitals)
        fci_one_rdm_b = numpy.array(fci_wavefunction.get_opdm(
            0, 0, 'B', True)).reshape(molecule.n_orbitals, molecule.n_orbitals)

        # Get 2-RDM from FCI calculation.
        fci_two_rdm_aa = numpy.array(fci_wavefunction.get_tpdm(
            'AA', False)).reshape(molecule.n_orbitals, molecule.n_orbitals,
                                  molecule.n_orbitals, molecule.n_orbitals)
        fci_two_rdm_ab = numpy.array(fci_wavefunction.get_tpdm(
            'AB', False)).reshape(molecule.n_orbitals, molecule.n_orbitals,
                                  molecule.n_orbitals, molecule.n_orbitals)
        fci_two_rdm_bb = numpy.array(fci_wavefunction.get_tpdm(
            'BB', False)).reshape(molecule.n_orbitals, molecule.n_orbitals,
                                  molecule.n_orbitals, molecule.n_orbitals)

        # Get overall RDMs.
        fci_one_rdm, fci_two_rdm = unpack_spatial_rdm(
            fci_one_rdm_a, fci_one_rdm_b,
            fci_two_rdm_aa, fci_two_rdm_ab, fci_two_rdm_bb)

        # Store 1-RDM in molecule file, 2-RDM separately in other file.
        molecule.fci_one_rdm = fci_one_rdm
        molecule.fci_two_rdm = fci_two_rdm
        molecule.save()"""


# Perform coupled cluster singles and doubles (CCSD) calculation.
if True:
    set qc_module ccenergy
    try:
        ccsd_energy = energy('ccsd',ref_wfn=scf_wfn)
        if True:
            print('CCSD energy for {} ({} electrons) is {}.'.format(
                molecule.name, molecule.n_electrons, ccsd_energy))
    except:
        if True:
            print('WARNING: CCSD calculation failed.')
        else:
            raise
    else:
        molecule.ccsd_energy = ccsd_energy

        # Merge CC amplitudes into molecule by parsing
        psi_filename = outfile_name()
        ccsd_amplitudes = parse_psi4_ccsd_amplitudes(
            2 * molecule.n_orbitals,
            molecule.get_n_alpha_electrons(),
            molecule.get_n_beta_electrons(),
            psi_filename)
        molecule.ccsd_amplitudes = ccsd_amplitudes
        molecule.save()
--------------------------------------------------------------------------
  Python driver attempted to set threads to 8.
  Psi4 was compiled without OpenMP, setting threads to 1.

  Memory set to   7.451 GiB by Python driver.

*** tstart() called on Berts-MacBook-Pro.local
*** at Wed Dec  6 22:23:25 2017

   => Loading Basis Set <=

    Name: DZP
    Role: ORBITAL
    Keyword: BASIS
    atoms 1-2 entry C          line    73 file /anaconda3/share/psi4/basis/dzp.gbs 
    atoms 3-6 entry H          line    16 file /anaconda3/share/psi4/basis/dzp.gbs 


         ---------------------------------------------------------
                                   SCF
            by Justin Turney, Rob Parrish, and Andy Simmonett
                              RHF Reference
                        1 Threads,   7629 MiB Core
         ---------------------------------------------------------

  ==> Geometry <==

    Molecular point group: c1
    Full point group: D2

    Geometry (in Angstrom), charge = 0, multiplicity = 1:

       Center              X                  Y                   Z               Mass       
    ------------   -----------------  -----------------  -----------------  -----------------
           C          0.000000000000     0.000000000000     0.673055000000    12.000000000000
           C          0.000000000000     0.000000000000    -0.673055000000    12.000000000000
           H          0.634665799859     0.686577594195     1.246807000000     1.007825032070
           H         -0.634665799859    -0.686577594195     1.246807000000     1.007825032070
           H          0.634665799859    -0.686577594195    -1.246807000000     1.007825032070
           H         -0.634665799859     0.686577594195    -1.246807000000     1.007825032070

  Running in c1 symmetry.

  Rotational constants: A =      4.78350  B =      0.89847  C =      0.88542 [cm^-1]
  Rotational constants: A = 143405.72603  B =  26935.37322  C =  26544.19971 [MHz]
  Nuclear repulsion =   32.992967134405781

  Charge       = 0
  Multiplicity = 1
  Electrons    = 16
  Nalpha       = 8
  Nbeta        = 8

  ==> Algorithm <==

  SCF Algorithm Type is PK.
  DIIS enabled.
  MOM disabled.
  Fractional occupation disabled.
  Guess Type is SAD.
  Energy threshold   = 1.00e-07
  Density threshold  = 1.00e-07
  Integral threshold = 0.00e+00

  ==> Primary Basis <==

  Basis Set: DZP
    Blend: DZP
    Number of shells: 26
    Number of basis function: 52
    Number of Cartesian functions: 52
    Spherical Harmonics?: false
    Max angular momentum: 2

  ==> Pre-Iterations <==

   -------------------------------------------------------
    Irrep   Nso     Nmo     Nalpha   Nbeta   Ndocc  Nsocc
   -------------------------------------------------------
     A         52      52       0       0       0       0
   -------------------------------------------------------
    Total      52      52       8       8       8       0
   -------------------------------------------------------

  ==> Integral Setup <==

  Using in-core PK algorithm.
   Calculation information:
      Number of atoms:                   6
      Number of AO shells:              26
      Number of primitives:             50
      Number of atomic orbitals:        52
      Number of basis functions:        52

      Integral cutoff                 1.00e-12
      Number of threads:                 1

  Performing in-core PK
  Using 1900262 doubles for integral storage.
  We computed 61771 shell quartets total.
  Whereas there are 61776 unique shell quartets.
  ==> DiskJK: Disk-Based J/K Matrices <==

    J tasked:                  Yes
    K tasked:                  Yes
    wK tasked:                  No
    Memory (MB):              5722
    Schwarz Cutoff:          1E-12

    OpenMP threads:              1
  Minimum eigenvalue in the overlap matrix is 9.1371711274E-03.
  Using Symmetric Orthogonalization.

  SCF Guess: Superposition of Atomic Densities via on-the-fly atomic UHF.

  ==> Iterations <==

                        Total Energy        Delta E     RMS |[F,P]|

   @RHF iter   0:   -69.16377404001852   -6.91638e+01   1.01492e-01 
   @RHF iter   1:   -74.09250806919749   -4.92873e+00   4.01646e-02 
   @RHF iter   2:   -76.96449347064291   -2.87199e+00   2.49622e-02 DIIS/DAMP
   @RHF iter   3:   -77.87953755106982   -9.15044e-01   2.47396e-03 DIIS/DAMP
   @RHF iter   4:   -77.89285243873192   -1.33149e-02   4.84927e-04 SOSCF, nmicro = 4/DAMP
   @RHF iter   5:   -77.89387029116703   -1.01785e-03   2.79937e-06 SOSCF, nmicro = 4/DAMP
   @RHF iter   6:   -77.89387031369682   -2.25298e-08   1.23378e-08 SOSCF, conv/DAMP

  ==> Post-Iterations <==

    Orbital Energies (a.u.)
    -----------------------

    Doubly Occupied:                                                      

       1A    -11.251663     2A    -11.250201     3A     -1.033772  
       4A     -0.792224     5A     -0.602350     6A     -0.589050  
       7A     -0.580886     8A     -0.264320  

    Virtual:                                                              

       9A      0.049234    10A      0.256771    11A      0.320325  
      12A      0.324405    13A      0.411368    14A      0.425581  
      15A      0.434093    16A      0.457518    17A      0.465662  
      18A      0.560827    19A      0.578594    20A      0.693224  
      21A      0.811683    22A      1.000988    23A      1.222110  
      24A      1.291413    25A      1.301860    26A      1.327501  
      27A      1.524623    28A      1.665040    29A      1.845602  
      30A      1.890104    31A      1.966424    32A      2.010456  
      33A      2.092922    34A      2.100870    35A      2.263736  
      36A      2.425815    37A      2.459137    38A      2.460584  
      39A      2.554710    40A      2.818562    41A      2.896633  
      42A      2.902511    43A      2.934915    44A      3.188866  
      45A      3.370188    46A      3.540280    47A      3.633564  
      48A      3.668666    49A      4.262120    50A      4.482017  
      51A     27.638993    52A     27.647577  

    Final Occupation by Irrep:
              A 
    DOCC [     8 ]

  Energy converged.

  @RHF Final Energy:   -77.89387031369682

   => Energetics <=

    Nuclear Repulsion Energy =             32.9929671344057809
    One-Electron Energy =                -169.0447428347042660
    Two-Electron Energy =                  58.1579053866016693
    DFT Exchange-Correlation Energy =       0.0000000000000000
    Empirical Dispersion Energy =           0.0000000000000000
    PCM Polarization Energy =               0.0000000000000000
    EFP Energy =                            0.0000000000000000
    Total Energy =                        -77.8938703136968229



Properties will be evaluated at   0.000000,   0.000000,   0.000000 Bohr

Properties computed using the SCF density matrix

  Nuclear Dipole Moment: (a.u.)
     X:     0.0000      Y:     0.0000      Z:     0.0000

  Electronic Dipole Moment: (a.u.)
     X:    -0.0000      Y:     0.0000      Z:     0.0000

  Dipole Moment: (a.u.)
     X:    -0.0000      Y:     0.0000      Z:     0.0000     Total:     0.0000

  Dipole Moment: (Debye)
     X:    -0.0000      Y:     0.0000      Z:     0.0000     Total:     0.0000


*** tstop() called on Berts-MacBook-Pro.local at Wed Dec  6 22:23:25 2017
Module time:
	user time   =       0.40 seconds =       0.01 minutes
	system time =       0.04 seconds =       0.00 minutes
	total time  =          0 seconds =       0.00 minutes
Total time:
	user time   =       0.40 seconds =       0.01 minutes
	system time =       0.04 seconds =       0.00 minutes
	total time  =          0 seconds =       0.00 minutes

*** tstart() called on Berts-MacBook-Pro.local
*** at Wed Dec  6 22:23:29 2017


  //>>>>>>>>>>>>>>>>>>>>>>>>>>>>>>>>>>>//
  //               DFMP2               //
  //<<<<<<<<<<<<<<<<<<<<<<<<<<<<<<<<<<<//

   => Loading Basis Set <=

    Name: (DZP AUX)
    Role: RIFIT
    Keyword: DF_BASIS_MP2
    atoms 1-2 entry C          line   269 file /anaconda3/share/psi4/basis/def2-qzvpp-ri.gbs 
    atoms 3-6 entry H          line    23 file /anaconda3/share/psi4/basis/def2-qzvpp-ri.gbs 

	 --------------------------------------------------------
	                          DF-MP2                         
	      2nd-Order Density-Fitted Moller-Plesset Theory     
	              RMP2 Wavefunction,   1 Threads             
	                                                         
	        Rob Parrish, Justin Turney, Andy Simmonett,      
	           Ed Hohenstein, and C. David Sherrill          
	 --------------------------------------------------------

   => Auxiliary Basis Set <=

  Basis Set: (DZP AUX)
    Blend: DEF2-QZVPP-RI
    Number of shells: 130
    Number of basis function: 506
    Number of Cartesian functions: 666
    Spherical Harmonics?: true
    Max angular momentum: 5

	 --------------------------------------------------------
	                 NBF =    52, NAUX =   506
	 --------------------------------------------------------
	   CLASS    FOCC     OCC    AOCC    AVIR     VIR    FVIR
	   PAIRS       0       8       8      44      44       0
	 --------------------------------------------------------

	-----------------------------------------------------------
	 ==================> DF-MP2 Energies <==================== 
	-----------------------------------------------------------
	 Reference Energy          =     -77.8938703136968229 [Eh]
	 Singles Energy            =      -0.0000000000000000 [Eh]
	 Same-Spin Energy          =      -0.0618685242487494 [Eh]
	 Opposite-Spin Energy      =      -0.2532187235354094 [Eh]
	 Correlation Energy        =      -0.3150872477841588 [Eh]
	 Total Energy              =     -78.2089575614809860 [Eh]
	-----------------------------------------------------------
	 ================> DF-SCS-MP2 Energies <================== 
	-----------------------------------------------------------
	 SCS Same-Spin Scale       =       0.3333333333333333 [-]
	 SCS Opposite-Spin Scale   =       1.2000000000000000 [-]
	 SCS Same-Spin Energy      =      -0.0206228414162498 [Eh]
	 SCS Opposite-Spin Energy  =      -0.3038624682424913 [Eh]
	 SCS Correlation Energy    =      -0.3244853096587411 [Eh]
	 SCS Total Energy          =     -78.2183556233555635 [Eh]
	-----------------------------------------------------------


*** tstop() called on Berts-MacBook-Pro.local at Wed Dec  6 22:23:30 2017
Module time:
	user time   =       0.29 seconds =       0.00 minutes
	system time =       0.05 seconds =       0.00 minutes
	total time  =          1 seconds =       0.02 minutes
Total time:
	user time   =       4.55 seconds =       0.08 minutes
	system time =       0.23 seconds =       0.00 minutes
	total time  =          5 seconds =       0.08 minutes
 MINTS: Wrapper to libmints.
   by Justin Turney

   Calculation information:
      Number of threads:                 1
      Number of atoms:                   6
      Number of AO shells:              26
      Number of SO shells:              26
      Number of primitives:             50
      Number of atomic orbitals:        52
      Number of basis functions:        52

      Number of irreps:                  1
      Integral cutoff                 0.00e+00
      Number of functions per irrep: [  52 ]

 OEINTS: Overlap, kinetic, potential, dipole, and quadrupole integrals
         stored in file 35.

      Computing two-electron integrals...done
      Computed 840727 non-zero two-electron integrals.
        Stored in file 33.


         ---------------------------------------------------------
                          Configuration Interaction
                            (a 'D E T C I' module)

                 C. David Sherrill, Daniel G. A. Smith, and
                              Matt L. Leininger
         ---------------------------------------------------------


   ==> Parameters <==

    EX LEVEL       =        2      H0 BLOCKSIZE  =     1000
    VAL EX LEVEL   =        0      H0 GUESS SIZE =     1000
    H0COUPLINGSIZE =        0      H0 COUPLING   =       NO
    MAXITER        =       24      NUM PRINT     =       20
    NUM ROOTS      =        1      ICORE         =        1
    PRINT LVL      =        1      FCI           =       NO
    R CONV         = 1.00e-07      MIXED         =      YES
    E CONV         = 1.00e-07      MIXED4        =      YES
    R4S            =       NO      REPL OTF      =       NO
    DIAG METHOD    =      SEM      FOLLOW ROOT   =        0
    PRECONDITIONER = DAVIDSON      UPDATE        = DAVIDSON
    S              =   0.0000      Ms0           =      YES
    GUESS VECTOR   =  H0BLOCK      OPENTYPE      =     NONE
    COLLAPSE SIZE  =        1      HD AVG        = EVANGELISTI
    MAX NUM VECS   =       25      REF SYM       =     AUTO
    IOPEN        =       NO

    EX ALLOW       =  1  1 
    STATE AVERAGE  =  0(1.00) 

   ==> CI Orbital and Space information <==

    RAS1 LVL      =        7      A RAS3 MAX    =        2
    RAS1 MIN      =       14      B RAS3 MAX    =        2
    A RAS1 LVL    =        7      RAS4 LVL      =       52
    A RAS1 MIN    =        6      A RAS4 MAX    =        0
    A RAS1 MAX    =        8      B RAS4 MAX    =        0
    B RAS1 LVL    =        7      RAS4 MAX      =        0
    B RAS1 MIN    =        6      A RAS34 MAX   =        2
    B RAS1 MAX    =        8      B RAS34 MAX   =        2
    RAS3 LVL      =        8      RAS34 MAX     =        2
    RAS3 MAX      =        2
   ------------------------------------
               Space    Total     A
   ------------------------------------
                 Nso       52    52
                 Nmo       52    52
               Ndocc        8     8
               Nsocc        0     0
   ------------------------------------
              CI Spaces
   ------------------------------------
        Dropped DOCC        0     0
                RAS1        8     8
                RAS2        0     0
                RAS3       44    44
                RAS4        0     0
      Active (total)       52    52
        Dropped UOCC        0     0
   ------------------------------------

   ==> Setting up CI strings <==

    There are 26841 alpha and 26841 beta strings
    The CI space requires 177585 (1.78E+05) determinants and 6 blocks

   ==> Transforming CI integrals <==

	Presorting SO-basis two-electron integrals.
	Sorting File: SO Ints (nn|nn) nbuckets = 1
	Transforming the one-electron integrals and constructing Fock matrices
	Starting first half-transformation.
	Sorting half-transformed integrals.
	First half integral transformation complete.
	Starting second half-transformation.
	Two-electron integral transformation complete.

   ==> Starting CI iterations <==

    H0 Block Eigenvalue = -77.96983412

    Simultaneous Expansion Method (Block Davidson Method)
    Using 1 initial trial vectors

     Iter   Root       Total Energy       Delta E      C RMS

   @CI  0:     0    -77.969834124793   -1.1096E+02   1.2407E+00  
   @CI  1:     0    -78.147741230880   -1.7791E-01   1.6812E-01  
   @CI  2:     0    -78.200401776107   -5.2661E-02   1.3947E-01  
   @CI  3:     0    -78.212719511884   -1.2318E-02   4.1933E-02  
   @CI  4:     0    -78.213443304824   -7.2379E-04   1.1003E-02  
   @CI  5:     0    -78.213500036389   -5.6732E-05   3.2047E-03  
   @CI  6:     0    -78.213504693757   -4.6574E-06   9.8091E-04  
   @CI  7:     0    -78.213505067832   -3.7407E-07   2.7229E-04  
   @CI  8:     0    -78.213505094989   -2.7158E-08   6.9605E-05  
   @CI  9:     0    -78.213505096620   -1.6306E-09   1.7034E-05  
   @CI 10:     0    -78.213505096721   -1.0156E-10   4.0062E-06  
   @CI 11:     0    -78.213505096727   -5.3717E-12   8.8734E-07  
    Warning: Norm of correction (root 0) is < 1.0E-13
   @CI 12:     0    -78.213505096727   -2.5580E-13   2.3730E-07  
    Warning: Norm of correction (root 0) is < 1.0E-13
   @CI 13:     0    -78.213505096727   -5.6843E-14   6.4124E-08 c

   ==> Energetics <==

    SCF energy =            0.000000000000000
    Total CI energy =     -78.213505096726948

   ==> CISD root 0 information <==

    CISD Root 0 energy =   -78.213505096726948

   The 20 most important determinants:

    *   1    0.937819  (    0,    0)  1AX 2AX 3AX 4AX 5AX 6AX 7AX 8AX 
    *   2   -0.160928  (    1,    1)  1AX 2AX 3AX 4AX 5AX 6AX 7AX 9AX 
    *   3   -0.046844  (    1,   81)  1AX 2AX 3AX 4AX 5AX 6AX 7AX 9AA 19AB 
    *   4   -0.046844  (   81,    1)  1AX 2AX 3AX 4AX 5AX 6AX 7AX 9AB 19AA 
    *   5    0.034608  (    1,    2)  1AX 2AX 3AX 4AX 5AX 6AX 7AA 8AB 9AX 
    *   6    0.034608  (    2,    1)  1AX 2AX 3AX 4AX 5AX 6AX 7AB 8AA 9AX 
    *   7   -0.026962  (   99,   99)  1AX 2AX 3AX 4AX 5AX 7AX 8AX 21AX 
    *   8   -0.023824  (    2,    2)  1AX 2AX 3AX 4AX 5AX 6AX 8AX 9AX 
    *   9    0.022948  (    0,   73)  1AX 2AX 3AX 4AX 5AX 6AX 7AX 8AA 18AB 
    *  10    0.022948  (   73,    0)  1AX 2AX 3AX 4AX 5AX 6AX 7AX 8AB 18AA 
    *  11   -0.021644  (   73,   73)  1AX 2AX 3AX 4AX 5AX 6AX 7AX 18AX 
    *  12   -0.020833  (    1,   99)  1AX 2AX 3AX 4AX 5AX 6AA 7AX 8AB 9AA 21AB 
    *  13   -0.020833  (   99,    1)  1AX 2AX 3AX 4AX 5AX 6AB 7AX 8AA 9AB 21AA 
    *  14    0.019902  (    2,   81)  1AX 2AX 3AX 4AX 5AX 6AX 7AB 8AA 9AA 19AB 
    *  15    0.019902  (   81,    2)  1AX 2AX 3AX 4AX 5AX 6AX 7AA 8AB 9AB 19AA 
    *  16   -0.019519  (   81,   81)  1AX 2AX 3AX 4AX 5AX 6AX 7AX 19AX 
    *  17   -0.018850  (    5,    5)  1AX 2AX 3AX 5AX 6AX 7AX 8AX 9AX 
    *  18   -0.018430  (   44,   44)  1AX 2AX 3AX 4AX 6AX 7AX 8AX 14AX 
    *  19   -0.017814  (   35,   35)  1AX 2AX 3AX 4AX 5AX 7AX 8AX 13AX 
    *  20    0.016816  (   44,   73)  1AX 2AX 3AX 4AX 5AB 6AX 7AX 8AA 14AA 18AB 

		 "A good bug is a dead bug" 

			 - Starship Troopers

		 "I didn't write FORTRAN.  That's the problem."

			 - Edward Valeev
 MINTS: Wrapper to libmints.
   by Justin Turney

   Calculation information:
      Number of threads:                 1
      Number of atoms:                   6
      Number of AO shells:              26
      Number of SO shells:              26
      Number of primitives:             50
      Number of atomic orbitals:        52
      Number of basis functions:        52

      Number of irreps:                  1
      Integral cutoff                 0.00e+00
      Number of functions per irrep: [  52 ]

 OEINTS: Overlap, kinetic, potential, dipole, and quadrupole integrals
         stored in file 35.

      Computing two-electron integrals...done
      Computed 840727 non-zero two-electron integrals.
        Stored in file 33.


*** tstart() called on Berts-MacBook-Pro.local
*** at Wed Dec  6 22:24:26 2017


	Wfn Parameters:
	--------------------
	Wavefunction         = CCSD
	Number of irreps     = 1
	Number of MOs        = 52
	Number of active MOs = 52
	AO-Basis             = NONE
	Semicanonical        = false
	Reference            = RHF
	Print Level          = 1

	IRREP	# MOs	# FZDC	# DOCC	# SOCC	# VIRT	# FZVR
	-----	-----	------	------	------	------	------
	 A	   52	    0	    8	    0	    44	    0
	Transforming integrals...
	IWL integrals will be deleted.
	(OO|OO)...
	Presorting SO-basis two-electron integrals.
	Sorting File: SO Ints (nn|nn) nbuckets = 1
	Transforming the one-electron integrals and constructing Fock matrices
	Starting first half-transformation.
	Sorting half-transformed integrals.
	First half integral transformation complete.
	Starting second half-transformation.
	Two-electron integral transformation complete.
	(OO|OV)...
	Starting second half-transformation.
	Two-electron integral transformation complete.
	(OO|VV)...
	Starting second half-transformation.
	Two-electron integral transformation complete.
	(OV|OO)...
	Starting first half-transformation.
	Sorting half-transformed integrals.
	First half integral transformation complete.
	Starting second half-transformation.
	Two-electron integral transformation complete.
	(OV|OV)...
	Starting second half-transformation.
	Two-electron integral transformation complete.
	(OV|VV)...
	Starting second half-transformation.
	Two-electron integral transformation complete.
	(VV|OO)...
	Starting first half-transformation.
	Sorting half-transformed integrals.
	First half integral transformation complete.
	Starting second half-transformation.
	Two-electron integral transformation complete.
	(VV|OV)...
	Starting second half-transformation.
	Two-electron integral transformation complete.
	(VV|VV)...
	Starting second half-transformation.
	Two-electron integral transformation complete.
	Frozen core energy     =      0.00000000000000

	Size of irrep 0 of <ab|cd> integrals:      3.748 (MW) /     29.985 (MB)
	Total:                                     3.748 (MW) /     29.985 (MB)

	Size of irrep 0 of <ia|bc> integrals:      0.681 (MW) /      5.452 (MB)
	Total:                                     0.681 (MW) /      5.452 (MB)

	Size of irrep 0 of tijab amplitudes:       0.124 (MW) /      0.991 (MB)
	Total:                                     0.124 (MW) /      0.991 (MB)

	Nuclear Rep. energy          =     32.99296713440578
	SCF energy                   =    -77.89387031369682
	One-electron energy          =   -169.04474336975093
	Two-electron energy          =     58.15790592164805
	Reference energy             =    -77.89387031369711

*** tstop() called on Berts-MacBook-Pro.local at Wed Dec  6 22:24:27 2017
Module time:
	user time   =       0.27 seconds =       0.00 minutes
	system time =       0.51 seconds =       0.01 minutes
	total time  =          1 seconds =       0.02 minutes
Total time:
	user time   =      60.24 seconds =       1.00 minutes
	system time =       1.38 seconds =       0.02 minutes
	total time  =         62 seconds =       1.03 minutes

*** tstart() called on Berts-MacBook-Pro.local
*** at Wed Dec  6 22:24:27 2017

            **************************
            *                        *
            *        CCENERGY        *
            *                        *
            **************************

    Nuclear Rep. energy (wfn)     =   32.992967134405781
    SCF energy          (wfn)     =  -77.893870313696823
    Reference energy    (file100) =  -77.893870313697107

    Input parameters:
    -----------------
    Wave function   =     CCSD
    Reference wfn   =     RHF
    Brueckner       =     No
    Memory (Mbytes) =     8000.0
    Maxiter         =   1000000
    R_Convergence   =     1.0e-07
    E_Convergence   =     1.0e-07
    Restart         =     Yes
    DIIS            =     Yes
    AO Basis        =     NONE
    ABCD            =     NEW
    Cache Level     =     2
    Cache Type      =     LOW
    Print Level     =     1
    Num. of threads =     1
    # Amps to Print =     1000000
    Print MP2 Amps? =     No
    Analyze T2 Amps =     No
    Print Pair Ener =     No
    Local CC        =     No
    SCS-MP2         =     False
    SCSN-MP2        =     False
    SCS-CCSD        =     False

MP2 correlation energy -0.3150959714402797
                Solving CC Amplitude Equations
                ------------------------------
  Iter             Energy              RMS        T1Diag      D1Diag    New D1Diag    D2Diag
  ----     ---------------------    ---------   ----------  ----------  ----------   --------
     0        -0.315095971440280    0.000e+00    0.000000    0.000000    0.000000    0.185701
     1        -0.336747492455273    7.765e-02    0.008290    0.030798    0.030798    0.226657
     2        -0.351331863355255    5.273e-02    0.011202    0.042499    0.042499    0.287210
     3        -0.357249968733410    3.444e-02    0.014962    0.057619    0.057619    0.363637
     4        -0.359644509619914    1.831e-02    0.016111    0.061685    0.061685    0.427610
     5        -0.359949120398104    4.706e-03    0.016037    0.060799    0.060799    0.435884
     6        -0.359994528938517    1.411e-03    0.016054    0.060569    0.060569    0.437402
     7        -0.360001665167559    4.413e-04    0.016076    0.060548    0.060548    0.437594
     8        -0.359992000142295    1.234e-04    0.016082    0.060551    0.060551    0.437412
     9        -0.359996245459119    3.920e-05    0.016088    0.060564    0.060564    0.437488
    10        -0.359997204179180    1.072e-05    0.016089    0.060567    0.060567    0.437492
    11        -0.359997030513475    3.258e-06    0.016089    0.060568    0.060568    0.437488
    12        -0.359997029369413    9.655e-07    0.016089    0.060568    0.060568    0.437489
    13        -0.359997012728117    3.847e-07    0.016089    0.060568    0.060568    0.437490
    14        -0.359997021569869    8.626e-08    0.016089    0.060568    0.060568    0.437490

    Iterations converged.


    Largest TIA Amplitudes:
              7   9         0.0490116005
              7   8         0.0229072543
              7   6         0.0207517403
              4   0         0.0164371113
              7  17        -0.0095640769
              6   9         0.0081189841
              7  20         0.0079978642
              7  29         0.0067736982
              6   8         0.0057241731
              5   4         0.0051782256
              5  22         0.0039711198
              3  23         0.0037236132
              3  13         0.0037188540
              4   5         0.0037049734
              7  24         0.0035307423
              2  26        -0.0030446376
              2  22         0.0027329655
              4  21        -0.0027129616
              4  32         0.0026566388
              2   3        -0.0026297920
              2  40         0.0025125840
              7  33        -0.0023923859
              5  34        -0.0022604958
              6  33         0.0021862746
              4  25         0.0021247085
              6  17        -0.0021109871
              7  39         0.0019526876
              3   1        -0.0019389456
              5  11        -0.0018108646
              3  41         0.0017908229
              6  24        -0.0017046790
              3  27        -0.0016034303
              3  19         0.0015936950
              5  18         0.0015828164
              2   4         0.0015792447
              4  16         0.0015400855
              3  35         0.0015192799
              6  39         0.0014059992
              3  36         0.0013171256
              4  10        -0.0012978995
              3   2        -0.0010389720
              3  12         0.0010155901
              4  38         0.0009976777
              5  26         0.0009699528
              5  14        -0.0009389211
              5  37        -0.0009193842
              4   7        -0.0008953780
              2  37         0.0007714746
              2  30        -0.0007494843
              2  14         0.0007408176
              6  20         0.0007050814
              6   6         0.0006677184
              2  11         0.0006309072
              1  13        -0.0005807545
              0  40        -0.0004634944
              1  41        -0.0003987913
              5  40         0.0003590690
              1   1        -0.0003330064
              5  30         0.0003218327
              0  14        -0.0003060218
              0  11        -0.0003039256
              6  29        -0.0003033190
              2  34        -0.0002872927
              4  28         0.0002747372
              0   3        -0.0002716295
              1  12        -0.0002455190
              1  35        -0.0002388476
              0  37        -0.0001890124
              3  15        -0.0001812792
              5   3        -0.0001705157
              0   4        -0.0001541532
              1  27        -0.0001430426
              1   2        -0.0001362268
              0  22        -0.0001235791
              2  42         0.0001172099
              1  36        -0.0001114913
              1  23        -0.0000994312
              1  43         0.0000948632
              0  42         0.0000946516
              3  43         0.0000907719
              3  31         0.0000721271
              2  18        -0.0000501284
              0  34        -0.0000405200
              1  15        -0.0000387874
              5  42         0.0000163192
              1  19        -0.0000155875
              0  30         0.0000039337
              0  18         0.0000025208
              1  31         0.0000017496
              0  26         0.0000011964

    Largest TIjAb Amplitudes:
      7   7   0   0        -0.3868986871
      7   7   0  10        -0.0823892250
      7   7  10   0        -0.0823892250
      6   7   0   0        -0.0455253539
      7   6   0   0        -0.0455253539
      5   5  12  12        -0.0320066250
      6   7   0  10        -0.0295858823
      7   6  10   0        -0.0295858823
      6   6   0   0        -0.0257441969
      2   7   0  12        -0.0246029348
      7   2  12   0        -0.0246029348
      4   7   0   9         0.0231419728
      7   4   9   0         0.0231419728
      2   7   0   2        -0.0229856093
      7   2   2   0        -0.0229856093
      4   4   5   5        -0.0226547503
      7   7   9   9        -0.0219413963
      5   5   4   4        -0.0218760814
      6   7  10   0        -0.0217858987
      7   6   0  10        -0.0217858987
      3   7   0   3        -0.0216705720
      7   3   3   0        -0.0216705720
      2   7   0   1        -0.0210704499
      7   2   1   0        -0.0210704499
      5   7  12   0        -0.0208326285
      7   5   0  12        -0.0208326285
      4   7   5   9        -0.0205936645
      7   4   9   5        -0.0205936645
      6   6   6   6        -0.0203586531
      6   7   0   5        -0.0200666281
      7   6   5   0        -0.0200666281
      5   7  12  10        -0.0195423023
      7   5  10  12        -0.0195423023
      4   6   5   6        -0.0194161637
      6   4   6   5        -0.0194161637
      5   7   4   9         0.0192721127
      7   5   9   4         0.0192721127
      7   7  10  10        -0.0189872670
      4   7   9   0         0.0186040893
      7   4   0   9         0.0186040893
      3   7   3   0        -0.0185245905
      7   3   0   3        -0.0185245905
      2   7  12   0        -0.0180492524
      7   2   0  12        -0.0180492524
      3   3   0   0        -0.0180417109
      3   7   0   4        -0.0179632671
      7   3   4   0        -0.0179632671
      3   7   0  11         0.0178676782
      7   3  11   0         0.0178676782
      2   7   1   0        -0.0174211277
      7   2   0   1        -0.0174211277
      6   7   6   9        -0.0172362147
      7   6   9   6        -0.0172362147
      4   5   5   4         0.0169214838
      5   4   4   5         0.0169214838
      3   7   0  14        -0.0166861697
      7   3  14   0        -0.0166861697
      7   7   0   5         0.0166726971
      7   7   5   0         0.0166726971
      5   7   0   2         0.0165109346
      7   5   2   0         0.0165109346
      5   6   4   6         0.0163150847
      6   5   6   4         0.0163150847
      3   7   1   9        -0.0159835077
      7   3   9   1        -0.0159835077
      2   7   2   0        -0.0151832185
      7   2   0   2        -0.0151832185
      7   7   0   7         0.0151430802
      7   7   7   0         0.0151430802
      2   2  12  12        -0.0148908933
      5   5   0   0        -0.0147631607
      7   7   5   5        -0.0145439473
      6   6   2   2        -0.0145255568
      6   7  10  10        -0.0144712446
      7   6  10  10        -0.0144712446
      4   4   2   2        -0.0144432081
      3   5   1   4         0.0141376783
      5   3   4   1         0.0141376783
      5   6  12   0        -0.0139238035
      6   5   0  12        -0.0139238035
      2   7   0  15        -0.0137405825
      7   2  15   0        -0.0137405825
      3   7   4   0        -0.0136284350
      7   3   0   4        -0.0136284350
      3   5   3  12        -0.0133397467
      5   3  12   3        -0.0133397467
      4   4   3   3        -0.0130892008
      3   4   1   5        -0.0130686952
      4   3   5   1        -0.0130686952
      3   3  12  12        -0.0130225187
      4   6   3   2        -0.0130135121
      6   4   2   3        -0.0130135121
      3   6   1   6        -0.0129528203
      6   3   6   1        -0.0129528203
      6   6   5   5        -0.0129353937
      6   7   0  16        -0.0125930240
      7   6  16   0        -0.0125930240
      2   5  13  12        -0.0125575919
      5   2  12  13        -0.0125575919
      4   6   2   3        -0.0125186390
      6   4   3   2        -0.0125186390
      4   4   9   9        -0.0125181242
      4   7   7   9        -0.0124967753
      7   4   9   7        -0.0124967753
      6   6   3   3        -0.0124361024
      3   3   3   3        -0.0121940122
      4   4   0   0        -0.0120192648
      5   7   2   0         0.0119981804
      7   5   0   2         0.0119981804
      3   7  13   9        -0.0119650577
      7   3   9  13        -0.0119650577
      3   6   0  18         0.0119352396
      6   3  18   0         0.0119352396
      4   7   6   0        -0.0118639943
      7   4   0   6        -0.0118639943
      4   4   0   5         0.0118545162
      4   4   5   0         0.0118545162
      3   3   1   1        -0.0117498662
      4   7   0   6        -0.0116983241
      7   4   6   0        -0.0116983241
      5   5   5   5        -0.0116942591
      2   2   0   0        -0.0116821892
      2   7   1  10        -0.0115806443
      7   2  10   1        -0.0115806443
      2   7  13   0        -0.0114467408
      7   2   0  13        -0.0114467408
      4   6   5   9         0.0113547194
      6   4   9   5         0.0113547194
      6   6  10  10        -0.0113301472
      2   7  12  10        -0.0112835346
      7   2  10  12        -0.0112835346
      5   6  12  10        -0.0112808972
      6   5  10  12        -0.0112808972
      3   7  14   0        -0.0112462147
      7   3   0  14        -0.0112462147
      3   3   4   4        -0.0112377671
      4   6   6   5        -0.0111474534
      6   4   5   6        -0.0111474534
      5   7   0  12        -0.0111016874
      7   5  12   0        -0.0111016874
      2   7   0  13        -0.0110857341
      7   2  13   0        -0.0110857341
      2   7  13  10        -0.0110619945
      7   2  10  13        -0.0110619945
      3   4  13   5        -0.0109870719
      4   3   5  13        -0.0109870719
      3   6  13   6        -0.0109604063
      6   3   6  13        -0.0109604063
      3   4   0   2         0.0109433160
      4   3   2   0         0.0109433160
      5   5   3   3        -0.0108689009
      4   4   7   7        -0.0108022133
      4   4   6   6        -0.0106639936
      2   4   0  18         0.0105914525
      4   2  18   0         0.0105914525
      3   5  13   4         0.0105520605
      5   3   4  13         0.0105520605
      7   7   2   2        -0.0104361409
      3   3  14  14        -0.0104311661
      4   4  18  18        -0.0104291994
      5   6   5   2         0.0104247011
      6   5   2   5         0.0104247011
      3   5   4  12        -0.0103045203
      5   3  12   4        -0.0103045203
      6   7   5   5         0.0102439320
      7   6   5   5         0.0102439320
      2   5   1  12        -0.0101815933
      5   2  12   1        -0.0101815933
      3   7   0  26         0.0101413642
      7   3  26   0         0.0101413642
      4   6   9   5         0.0101391246
      6   4   5   9         0.0101391246
      4   7   0  17        -0.0101352868
      7   4  17   0        -0.0101352868
      2   5   0  21        -0.0101250264
      5   2  21   0        -0.0101250264
      6   6  18  18        -0.0101017602
      5   7   0  15         0.0100634993
      7   5  15   0         0.0100634993
      4   7   9   5        -0.0100546293
      7   4   5   9        -0.0100546293
      2   7   3   9        -0.0099595254
      7   2   9   3        -0.0099595254
      3   5  12   3        -0.0099590466
      5   3   3  12        -0.0099590466
      4   4   6   9         0.0098933844
      4   4   9   6         0.0098933844
      4   5   9  12         0.0097670835
      5   4  12   9         0.0097670835
      6   7   9   9         0.0096958872
      7   6   9   9         0.0096958872
      4   4  14  14        -0.0096879862
      5   6  12   7        -0.0096595069
      6   5   7  12        -0.0096595069
      3   7   3  10        -0.0095774582
      7   3  10   3        -0.0095774582
      2   2  13  13        -0.0095640203
      6   6  17  17        -0.0095525014
      7   7  11  11        -0.0095422158
      6   6  14  14        -0.0094550239
      4   4  16  16        -0.0094083731
      4   7   9  10         0.0093369841
      7   4  10   9         0.0093369841
      6   6   0  10        -0.0093280651
      6   6  10   0        -0.0093280651
      5   7  12   7         0.0093279891
      7   5   7  12         0.0093279891
      3   5   2   3         0.0093204189
      5   3   3   2         0.0093204189
      3   5   3   2         0.0093000394
      5   3   2   3         0.0093000394
      3   5   0   6        -0.0092777472
      5   3   6   0        -0.0092777472
      4   6  16  17        -0.0092638810
      6   4  17  16        -0.0092638810
      4   4  15  15        -0.0092572764
      4   6  14   2        -0.0092553242
      6   4   2  14        -0.0092553242
      2   6   0  19        -0.0091819554
      6   2  19   0        -0.0091819554
      7   7   1   1        -0.0091758545
      3   7   4  10        -0.0091355490
      7   3  10   4        -0.0091355490
      6   6  15  15        -0.0091333518
      2   7   0  23        -0.0091308372
      7   2  23   0        -0.0091308372
      4   5   8  12        -0.0091291075
      5   4  12   8        -0.0091291075
      3   7   2   9        -0.0091055438
      7   3   9   2        -0.0091055438
      5   5  16  16        -0.0090846460
      2   5  12  12        -0.0090802049
      5   2  12  12        -0.0090802049
      4   6   2  14        -0.0090715934
      6   4  14   2        -0.0090715934
      6   6   5  10        -0.0090715622
      6   6  10   5        -0.0090715622
      3   3   2   2        -0.0090258045
      3   3   3  14        -0.0090231441
      3   3  14   3        -0.0090231441
      3   5   0  17        -0.0090164273
      5   3  17   0        -0.0090164273
      3   4   0  19        -0.0089815050
      4   3  19   0        -0.0089815050
      4   6   5  17        -0.0089429049
      6   4  17   5        -0.0089429049
      4   4  19  19        -0.0089224780
      2   2   5   5        -0.0088510066
      6   7   5   0        -0.0088417733
      7   6   0   5        -0.0088417733
      7   7   7  10         0.0088281776
      7   7  10   7         0.0088281776
      5   5  17  17        -0.0087657987
      4   6  19  18         0.0087315294
      6   4  18  19         0.0087315294
      5   5   6   6        -0.0087149793
      2   2  12  13        -0.0087093568
      2   2  13  12        -0.0087093568
      4   4   5  16        -0.0086658510
      4   4  16   5        -0.0086658510
      7   7  12  12        -0.0086644917
      4   6  14  15        -0.0086448504
      6   4  15  14        -0.0086448504
      6   6   8   8        -0.0086060563
      4   6  15  14        -0.0085886536
      6   4  14  15        -0.0085886536
      6   6   6   9         0.0085693607
      6   6   9   6         0.0085693607
      6   6  19  19        -0.0084897006
      2   7  10  12        -0.0084642831
      7   2  12  10        -0.0084642831
      4   5   7   4         0.0084405176
      5   4   4   7         0.0084405176
      6   7   8   9        -0.0084349213
      7   6   9   8        -0.0084349213
      4   5   2   6         0.0084061177
      5   4   6   2         0.0084061177
      4   6   7   6        -0.0083982973
      6   4   6   7        -0.0083982973
      3   3  13  13        -0.0083817943
      3   4   4   9         0.0083782030
      4   3   9   4         0.0083782030
      4   7   2  11        -0.0083482609
      7   4  11   2        -0.0083482609
      4   6  18  19         0.0083471631
      6   4  19  18         0.0083471631
      4   6   7   8        -0.0083350437
      6   4   8   7        -0.0083350437
      5   5  22  22        -0.0082749464
      2   2   0  10        -0.0082727416
      2   2  10   0        -0.0082727416
      5   5   2   2        -0.0082360346
      2   4  13   9         0.0082342439
      4   2   9  13         0.0082342439
      3   3   1  13        -0.0081927883
      3   3  13   1        -0.0081927883
      2   5  11   4         0.0081808806
      5   2   4  11         0.0081808806
      4   4  17  17        -0.0081365014
      5   5  20  20        -0.0080907529
      5   6  16  15         0.0080886776
      6   5  15  16         0.0080886776
      3   4   0  15         0.0080793534
      4   3  15   0         0.0080793534
      2   2  10  10        -0.0080477114
      2   5   3   4         0.0080473927
      5   2   4   3         0.0080473927
      4   5  15  17         0.0079635993
      5   4  17  15         0.0079635993
      3   5  11  12        -0.0079394955
      5   3  12  11        -0.0079394955
      2   7  10   1        -0.0079371541
      7   2   1  10        -0.0079371541
      4   5   3   5         0.0079339293
      5   4   5   3         0.0079339293
      5   5   1   1        -0.0079285853
      5   5   2  12         0.0079018158
      5   5  12   2         0.0079018158
      3   5   4   1         0.0078997261
      5   3   1   4         0.0078997261
      6   6  16  16        -0.0078756435
      2   6  13  10        -0.0078401012
      6   2  10  13        -0.0078401012
      2   2   6   6        -0.0078298469
      3   7   9   1        -0.0078205307
      7   3   1   9        -0.0078205307
      3   3   3   4        -0.0077753408
      3   3   4   3        -0.0077753408
      3   6   4   5        -0.0077582519
      6   3   5   4        -0.0077582519
      3   6   4  10        -0.0077446133
      6   3  10   4        -0.0077446133
      6   7  21   0        -0.0077260696
      7   6   0  21        -0.0077260696
      2   7  11   9        -0.0077154752
      7   2   9  11        -0.0077154752
      3   5   0  20         0.0077082452
      5   3  20   0         0.0077082452
      2   6   1  10        -0.0076778090
      6   2  10   1        -0.0076778090
      4   6   6  10        -0.0076078775
      6   4  10   6        -0.0076078775
      4   4   2  15        -0.0075877693
      4   4  15   2        -0.0075877693
      5   5  21  21        -0.0075541322
      4   4   3  14        -0.0075431380
      4   4  14   3        -0.0075431380
      3   3   0  10        -0.0075309203
      3   3  10   0        -0.0075309203
      4   6  17  16        -0.0074434227
      6   4  16  17        -0.0074434227
      3   5   2  14         0.0074316705
      5   3  14   2         0.0074316705
      6   6   6  17        -0.0074134251
      6   6  17   6        -0.0074134251
      5   5  14  14        -0.0073855180
      2   4   1   9         0.0073815195
      4   2   9   1         0.0073815195
      3   3  15  15        -0.0073779282
      3   4   4   6        -0.0073687205
      4   3   6   4        -0.0073687205
      6   6   2  15        -0.0073583769
      6   6  15   2        -0.0073583769
      2   3   0   9        -0.0073436226
      3   2   9   0        -0.0073436226
      4   6   0  17         0.0073412756
      6   4  17   0         0.0073412756
      4   4   0  16         0.0073237856
      4   4  16   0         0.0073237856
      3   5  14   2         0.0072977587
      5   3   2  14         0.0072977587
      2   5  12  27        -0.0072919584
      5   2  27  12        -0.0072919584
      4   4   5   7        -0.0072848833
      4   4   7   5        -0.0072848833
      5   6   4   9        -0.0072679943
      6   5   9   4        -0.0072679943
      3   5  14  12        -0.0072670457
      5   3  12  14        -0.0072670457
      3   5   0   8         0.0072285889
      5   3   8   0         0.0072285889
      5   5   5  16        -0.0072285452
      5   5  16   5        -0.0072285452
      2   6   3   6        -0.0072267445
      6   2   6   3        -0.0072267445
      2   6  13   5        -0.0071657500
      6   2   5  13        -0.0071657500
      2   2  11  11        -0.0071461414
      4   6   9  10         0.0071317933
      6   4  10   9         0.0071317933
      3   3  10  10        -0.0071311994
      4   6   8   0        -0.0071133619
      6   4   0   8        -0.0071133619
      6   6   3  14        -0.0071061051
      6   6  14   3        -0.0071061051
      2   5  12  13        -0.0070589219
      5   2  13  12        -0.0070589219
      5   5   3  14        -0.0070259422
      5   5  14   3        -0.0070259422
      4   7   0  20        -0.0070142982
      7   4  20   0        -0.0070142982
      4   6   0   6         0.0070108362
      6   4   6   0         0.0070108362
      3   3   9   9        -0.0069635178
      5   5   0   5         0.0069478608
      5   5   5   0         0.0069478608
      4   5  14   0        -0.0069331215
      5   4   0  14        -0.0069331215
      2   7  15   0        -0.0069307562
      7   2   0  15        -0.0069307562
      5   6  16   2         0.0069232039
      6   5   2  16         0.0069232039
      2   2   1  13        -0.0069083822
      2   2  13   1        -0.0069083822
      4   5   2  17         0.0069055994
      5   4  17   2         0.0069055994
      4   7   5  20         0.0068746819
      7   4  20   5         0.0068746819
      4   6  17   0         0.0068601107
      6   4   0  17         0.0068601107
      4   6  10   6        -0.0068347419
      6   4   6  10        -0.0068347419
      5   7   1   5        -0.0068305290
      7   5   5   1        -0.0068305290
      5   6  20  18        -0.0068272166
      6   5  18  20        -0.0068272166
      3   5  14  15         0.0068260211
      5   3  15  14         0.0068260211
      2   4   3   5        -0.0068050448
      4   2   5   3        -0.0068050448
      5   7  12  16        -0.0067935523
      7   5  16  12        -0.0067935523
      2   7  10   2        -0.0067930807
      7   2   2  10        -0.0067930807
      5   7  15   0         0.0067905932
      7   5   0  15         0.0067905932
      4   5   5  22         0.0067876640
      5   4  22   5         0.0067876640
      4   5   6  12        -0.0067795165
      5   4  12   6        -0.0067795165
      4   6  16   6        -0.0067586965
      6   4   6  16        -0.0067586965
      2   4  13   6        -0.0067391170
      4   2   6  13        -0.0067391170
      3   5   2   4         0.0067359070
      5   3   4   2         0.0067359070
      3   7   0  22        -0.0067066804
      7   3  22   0        -0.0067066804
      2   6  12  10        -0.0066949085
      6   2  10  12        -0.0066949085
      5   7   3   9         0.0066928231
      7   5   9   3         0.0066928231
      4   5  14  16         0.0066863075
      5   4  16  14         0.0066863075
      5   5  11  11        -0.0066772327
      3   3  19  19        -0.0066622969
      4   7  17   0        -0.0066596608
      7   4   0  17        -0.0066596608
      6   7   6   6        -0.0066435607
      7   6   6   6        -0.0066435607
      3   5  15  14         0.0066219884
      5   3  14  15         0.0066219884
      3   4   1   7        -0.0066079972
      4   3   7   1        -0.0066079972
      6   7   0   7         0.0065765424
      7   6   7   0         0.0065765424
      2   2   1  12        -0.0065746414
      2   2  12   1        -0.0065746414
      4   7   6  10        -0.0065697675
      7   4  10   6        -0.0065697675
      3   3   5   5        -0.0065603064
      4   5   0   4        -0.0065404634
      5   4   4   0        -0.0065404634
      4   4  11  11        -0.0065394052
      2   4  11   7        -0.0065367646
      4   2   7  11        -0.0065367646
      2   7  23   0        -0.0065343446
      7   2   0  23        -0.0065343446
      7   7   3   3        -0.0065107598
      4   5  18  21         0.0064966398
      5   4  21  18         0.0064966398
      3   5  12  22         0.0064872618
      5   3  22  12         0.0064872618
      6   6  11  11        -0.0064837713
      3   6  16  14        -0.0064774544
      6   3  14  16        -0.0064774544
      5   6  17  14         0.0064682705
      6   5  14  17         0.0064682705
      3   3  17  17        -0.0064588865
      3   4  17  14        -0.0064587717
      4   3  14  17        -0.0064587717
      3   7   9   2        -0.0064544767
      7   3   2   9        -0.0064544767
      4   7   2   3         0.0064514166
      7   4   3   2         0.0064514166
      3   4   5  13        -0.0064451039
      4   3  13   5        -0.0064451039
      2   4  12   9         0.0064379191
      4   2   9  12         0.0064379191
      7   7   0  28        -0.0064378981
      7   7  28   0        -0.0064378981
      3   6   1   9         0.0064160685
      6   3   9   1         0.0064160685
      7   7   1   2        -0.0064151766
      7   7   2   1        -0.0064151766
      5   7   5  12         0.0064004931
      7   5  12   5         0.0064004931
      3   7  10   3        -0.0064002945
      7   3   3  10        -0.0064002945
      2   5  27  12        -0.0063764320
      5   2  12  27        -0.0063764320
      5   5   0  16         0.0063478885
      5   5  16   0         0.0063478885
      2   2   1   1        -0.0063444200
      6   6   1   1        -0.0063378019
      6   7   3  11        -0.0063131021
      7   6  11   3        -0.0063131021
      2   3   1   4        -0.0062996628
      3   2   4   1        -0.0062996628
      3   4   2   5        -0.0062929192
      4   3   5   2        -0.0062929192
      4   4   1   1        -0.0062856175
      3   3  18  18        -0.0062825679
      5   6   0   2        -0.0062664062
      6   5   2   0        -0.0062664062
      4   5   3   0        -0.0062483597
      5   4   0   3        -0.0062483597
      2   4  18   0         0.0062431795
      4   2   0  18         0.0062431795
      3   6  18   0         0.0062335591
      6   3   0  18         0.0062335591
      3   6   5   3        -0.0062124947
      6   3   3   5        -0.0062124947
      5   6   5  15         0.0062013644
      6   5  15   5         0.0062013644
      5   6   6   3         0.0061953848
      6   5   3   6         0.0061953848
      3   3   0  21         0.0061815668
      3   3  21   0         0.0061815668
      2   2  16  16        -0.0061695860
      4   5  14   5         0.0061686519
      5   4   5  14         0.0061686519
      3   3   2  15        -0.0061622489
      3   3  15   2        -0.0061622489
      2   2  18  18        -0.0061551700
      4   6  17   5        -0.0061467300
      6   4   5  17        -0.0061467300
      4   7  18  12         0.0061407565
      7   4  12  18         0.0061407565
      3   4   3   9         0.0061366859
      4   3   9   3         0.0061366859
      2   7  10  13        -0.0061343615
      7   2  13  10        -0.0061343615
      3   6   2   6        -0.0061307324
      6   3   6   2        -0.0061307324
      3   7   4   5         0.0061237886
      7   3   5   4         0.0061237886
      2   3   3   2        -0.0061060033
      3   2   2   3        -0.0061060033
      3   4   5   1        -0.0061024633
      4   3   1   5        -0.0061024633
      3   3   6   6        -0.0060973594
      6   6   5  16        -0.0060794870
      6   6  16   5        -0.0060794870
      3   4  19   0        -0.0060784528
      4   3   0  19        -0.0060784528
      2   2  17  17        -0.0060695422
      6   6   7   7        -0.0060624031
      3   3  11  11        -0.0060556636
      3   6   3  10        -0.0060533806
      6   3  10   3        -0.0060533806
      6   7   7  10        -0.0060431853
      7   6  10   7        -0.0060431853
      3   3  16  16        -0.0060402600
      2   4   1   6        -0.0060358320
      4   2   6   1        -0.0060358320
      5   6  13   0        -0.0060258019
      6   5   0  13        -0.0060258019
      2   6  11   6        -0.0060175889
      6   2   6  11        -0.0060175889
      2   5   0   5         0.0060133912
      5   2   5   0         0.0060133912
      3   6   6  13        -0.0060128656
      6   3  13   6        -0.0060128656
      2   6   1   5        -0.0060024043
      6   2   5   1        -0.0060024043
      2   2   5  16        -0.0059988794
      2   2  16   5        -0.0059988794
      2   2   9   9        -0.0059825626
      5   7   4   6         0.0059691894
      7   5   6   4         0.0059691894
      3   6   6   1        -0.0059570248
      6   3   1   6        -0.0059570248
      4   6  11  15         0.0059374987
      6   4  15  11         0.0059374987
      4   4  13  13        -0.0059316590
      5   6   4   8         0.0059200441
      6   5   8   4         0.0059200441
      4   7   6   5         0.0059056272
      7   4   5   6         0.0059056272
      3   4   3   6        -0.0058923777
      4   3   6   3        -0.0058923777
      5   6  11  17        -0.0058766117
      6   5  17  11        -0.0058766117
      2   3  13   4        -0.0058630104
      3   2   4  13        -0.0058630104
      4   5  16  11        -0.0058600436
      5   4  11  16        -0.0058600436
      6   6  13  13        -0.0058582713
      5   5   4  22        -0.0058582062
      5   5  22   4        -0.0058582062
      2   4   3   7        -0.0058565568
      4   2   7   3        -0.0058565568
      4   6  15  11         0.0058546447
      6   4  11  15         0.0058546447
      4   7   2   4         0.0058348620
      7   4   4   2         0.0058348620
      4   7   8  10        -0.0058325873
      7   4  10   8        -0.0058325873
      3   5   8   0         0.0058223934
      5   3   0   8         0.0058223934
      3   3   4  14        -0.0058208174
      3   3  14   4        -0.0058208174
      2   5  21   0        -0.0057799833
      5   2   0  21        -0.0057799833
      5   5  13  13        -0.0057752562
      3   5  12  14        -0.0057690559
      5   3  14  12        -0.0057690559
      3   6   3   5        -0.0057687101
      6   3   5   3        -0.0057687101
      4   6   8   7        -0.0057649640
      6   4   7   8        -0.0057649640
      5   6  12   5        -0.0057485288
      6   5   5  12        -0.0057485288
      2   6  11   8        -0.0057421479
      6   2   8  11        -0.0057421479
      2   6   1   0        -0.0057308193
      6   2   0   1        -0.0057308193
      2   3  18  19         0.0057201575
      3   2  19  18         0.0057201575
      6   6   6   8        -0.0057186120
      6   6   8   6        -0.0057186120
      6   6   7  10        -0.0057177797
      6   6  10   7        -0.0057177797
      3   5  17   0        -0.0056983382
      5   3   0  17        -0.0056983382
      5   5   6  17        -0.0056928014
      5   5  17   6        -0.0056928014
      2   3   3  13        -0.0056800826
      3   2  13   3        -0.0056800826
      2   3   2   3        -0.0056702354
      3   2   3   2        -0.0056702354
      6   7   7   0        -0.0056644533
      7   6   0   7        -0.0056644533
      6   6   0   7        -0.0056593770
      6   6   7   0        -0.0056593770
      3   4  16  15        -0.0056457279
      4   3  15  16        -0.0056457279
      3   6   5   4        -0.0056347826
      6   3   4   5        -0.0056347826
      4   4   8   8        -0.0056112119
      3   7  14  10        -0.0056061878
      7   3  10  14        -0.0056061878
      5   6  22   6         0.0056024895
      6   5   6  22         0.0056024895
      3   3   2  12         0.0055948492
      3   3  12   2         0.0055948492
      6   7  17  20         0.0055750030
      7   6  20  17         0.0055750030
      3   6  17  15        -0.0055674770
      6   3  15  17        -0.0055674770
      4   5  19  20         0.0055457976
      5   4  20  19         0.0055457976
      6   6  12  12        -0.0055434440
      2   7   2  10        -0.0055392969
      7   2  10   2        -0.0055392969
      6   6   9   9        -0.0055357984
      3   3  22  22        -0.0055356523
      2   7   0  27         0.0055209644
      7   2  27   0         0.0055209644
      5   7  10  12        -0.0055187553
      7   5  12  10        -0.0055187553
      2   2   0   5         0.0055131269
      2   2   5   0         0.0055131269
      7   7   4   4        -0.0055126377
      2   6   5   1        -0.0055089667
      6   2   1   5        -0.0055089667
      3   4   3  24        -0.0055066652
      4   3  24   3        -0.0055066652
      5   7   6  11         0.0054977532
      7   5  11   6         0.0054977532
      5   5  27  27        -0.0054856969
      3   5   3  15         0.0054823943
      5   3  15   3         0.0054823943
      4   4  12  12        -0.0054784933
      4   7  16  20         0.0054737158
      7   4  20  16         0.0054737158
      2   3   9   0        -0.0054669500
      3   2   0   9        -0.0054669500
      2   3   3   1        -0.0054630355
      3   2   1   3        -0.0054630355
      4   7  18  19        -0.0054586472
      7   4  19  18        -0.0054586472
      2   6   5  13        -0.0054585298
      6   2  13   5        -0.0054585298
      3   4   5   2        -0.0054523493
      4   3   2   5        -0.0054523493
      5   7   0  23        -0.0054506227
      7   5  23   0        -0.0054506227
      5   7  16  19        -0.0054470912
      7   5  19  16        -0.0054470912
      7   7   6   9        -0.0054400353
      7   7   9   6        -0.0054400353
      5   5  15  15        -0.0054399961
      2   7  14   9        -0.0054267392
      7   2   9  14        -0.0054267392
      5   6   1   5         0.0054215232
      6   5   5   1         0.0054215232
      2   2  21  21        -0.0054077334
      3   7   9  13        -0.0053893393
      7   3  13   9        -0.0053893393
      7   7  18  18        -0.0053891110
      3   7  12  20         0.0053844696
      7   3  20  12         0.0053844696
      6   6  23  23        -0.0053757446
      2   6  12   0        -0.0053656464
      6   2   0  12        -0.0053656464
      4   7   2  14         0.0053562209
      7   4  14   2         0.0053562209
      5   7   9   4         0.0053532319
      7   5   4   9         0.0053532319
      3   3  20  20        -0.0053365495
      3   6   3  25         0.0053281078
      6   3  25   3         0.0053281078
      3   4  13   7        -0.0053227844
      4   3   7  13        -0.0053227844
      2   3   6  10        -0.0053125852
      3   2  10   6        -0.0053125852
      3   7  10  14        -0.0053063511
      7   3  14  10        -0.0053063511
      5   5   2  15        -0.0052994818
      5   5  15   2        -0.0052994818
      3   6  12  17        -0.0052919618
      6   3  17  12        -0.0052919618
      6   7   0  21        -0.0052782499
      7   6  21   0        -0.0052782499
      2   6  12   5        -0.0052630516
      6   2   5  12        -0.0052630516
      4   4  23  23        -0.0052614986
      6   7   6  20         0.0052488717
      7   6  20   6         0.0052488717
      3   4   9   4         0.0052403276
      4   3   4   9         0.0052403276
      2   2  20  20        -0.0052402559
      4   4  24  24        -0.0052396785
      3   5  10  20         0.0052331689
      5   3  20  10         0.0052331689
      2   4   9   1         0.0052167043
      4   2   1   9         0.0052167043
      2   3  13   3        -0.0052147939
      3   2   3  13        -0.0052147939
      7   7  13  13        -0.0052138927
      7   7   0  16        -0.0052110088
      7   7  16   0        -0.0052110088
      2   3   0  17         0.0052109181
      3   2  17   0         0.0052109181
      2   2   6  17        -0.0051901000
      2   2  17   6        -0.0051901000
      4   5  16  22         0.0051882255
      5   4  22  16         0.0051882255
      2   3   2  14        -0.0051784660
      3   2  14   2        -0.0051784660
      3   6  12   8         0.0051784152
      6   3   8  12         0.0051784152
      2   3  14   2        -0.0051710381
      3   2   2  14        -0.0051710381
      2   5   3   3         0.0051631410
      5   2   3   3         0.0051631410
      4   7   9   7        -0.0051568073
      7   4   7   9        -0.0051568073
      3   4  12  16        -0.0051562123
      4   3  16  12        -0.0051562123
      3   4   6   4        -0.0051504003
      4   3   4   6        -0.0051504003
      3   6  11   0        -0.0051476174
      6   3   0  11        -0.0051476174
      5   6   0  15        -0.0051450439
      6   5  15   0        -0.0051450439
      2   5   5  21         0.0051352009
      5   2  21   5         0.0051352009
      3   4   6   3        -0.0051298396
      4   3   3   6        -0.0051298396
      3   3  21  21        -0.0051246484
      7   7   6   6        -0.0051199809
      5   7  21   2        -0.0051168908
      7   5   2  21        -0.0051168908
      2   2   4   4        -0.0051107806
      4   4   6  17        -0.0051097438
      4   4  17   6        -0.0051097438
      3   3   2  13        -0.0051016608
      3   3  13   2        -0.0051016608
      6   6  25  25        -0.0050966757
      3   6  10  18         0.0050926752
      6   3  18  10         0.0050926752
      2   7   6  18         0.0050879494
      7   2  18   6         0.0050879494
      4   5   2   9        -0.0050844447
      5   4   9   2        -0.0050844447
      3   4  14  17        -0.0050775533
      4   3  17  14        -0.0050775533
      5   6  22  17         0.0050733446
      6   5  17  22         0.0050733446
      7   7  10  16        -0.0050583625
      7   7  16  10        -0.0050583625
      5   7  23   0        -0.0050547736
      7   5   0  23        -0.0050547736
      2   6  19   0        -0.0050545706
      6   2   0  19        -0.0050545706
      2   5   2   2         0.0050341627
      5   2   2   2         0.0050341627
      5   6   2   5         0.0050308385
      6   5   5   2         0.0050308385
      3   7  10  26         0.0050296353
      7   3  26  10         0.0050296353
      3   5  15   3         0.0050285320
      5   3   3  15         0.0050285320
      2   2   3   3        -0.0050201066
      5   5   1  13        -0.0050174581
      5   5  13   1        -0.0050174581
      4   7   3   2         0.0050138432
      7   4   2   3         0.0050138432
      2   3  19  18         0.0050097963
      3   2  18  19         0.0050097963
      6   6  24  24        -0.0050048517
      4   4   4   4        -0.0050040361
      3   6  12  24         0.0050030826
      6   3  24  12         0.0050030826
      3   7  10   4        -0.0050027126
      7   3   4  10        -0.0050027126
      7   7   1  12        -0.0050014407
      7   7  12   1        -0.0050014407
      2   4   6   1        -0.0049931301
      4   2   1   6        -0.0049931301
      4   5  17  15         0.0049871458
      5   4  15  17         0.0049871458
      3   7  26   0         0.0049858887
      7   3   0  26         0.0049858887
      4   6   3  13        -0.0049791094
      6   4  13   3        -0.0049791094
      7   7   7   7        -0.0049676511
      5   5  11  22         0.0049625356
      5   5  22  11         0.0049625356
      2   7   5   1         0.0049621555
      7   2   1   5         0.0049621555
      5   6  15  16         0.0049601123
      6   5  16  15         0.0049601123
      2   4  11   5        -0.0049582461
      4   2   5  11        -0.0049582461
      2   6  10   1        -0.0049576285
      6   2   1  10        -0.0049576285
      2   3   5   9         0.0049522123
      3   2   9   5         0.0049522123
      3   6  14  16        -0.0049446744
      6   3  16  14        -0.0049446744
      2   4  12   6        -0.0049394830
      4   2   6  12        -0.0049394830
      2   2  22  22        -0.0049342760
      5   7   5  19        -0.0049274200
      7   5  19   5        -0.0049274200
      4   4  22  22        -0.0049245102
      7   7   2  12        -0.0049209833
      7   7  12   2        -0.0049209833
      3   6   3   7        -0.0049191164
      6   3   7   3        -0.0049191164
      3   4  12   7         0.0049179757
      4   3   7  12         0.0049179757
      3   4   9   3         0.0049123559
      4   3   3   9         0.0049123559
      6   7   5  10        -0.0049030925
      7   6  10   5        -0.0049030925
      2   5   5  16        -0.0049006891
      5   2  16   5        -0.0049006891
      3   6  10   4        -0.0048884439
      6   3   4  10        -0.0048884439
      3   3  24  24        -0.0048804581
      3   6   0  14         0.0048803175
      6   3  14   0         0.0048803175
      5   7  22  20        -0.0048689575
      7   5  20  22        -0.0048689575
      2   4   6  13        -0.0048637010
      4   2  13   6        -0.0048637010
      6   6  22  22        -0.0048621450
      4   4  11  14         0.0048588887
      4   4  14  11         0.0048588887
      4   6  13   3        -0.0048574624
      6   4   3  13        -0.0048574624
      2   4   9  13         0.0048414859
      4   2  13   9         0.0048414859
      3   4  12  25        -0.0048394073
      4   3  25  12        -0.0048394073
      4   5  18   5        -0.0048369471
      5   4   5  18        -0.0048369471
      5   7  17  18         0.0048303390
      7   5  18  17         0.0048303390
      3   4  15   0         0.0048211664
      4   3   0  15         0.0048211664
      4   6  24  25         0.0048201653
      6   4  25  24         0.0048201653
      2   5  14   4         0.0048134807
      5   2   4  14         0.0048134807
      6   6   4   4        -0.0048098221
      4   6   6   7        -0.0048054972
      6   4   7   6        -0.0048054972
      3   5   4   2         0.0047997228
      5   3   2   4         0.0047997228
      2   5   4  11         0.0047982018
      5   2  11   4         0.0047982018
      4   5  11  16        -0.0047936081
      5   4  16  11        -0.0047936081
      3   3  25  25        -0.0047896469
      7   7   2  15        -0.0047765408
      7   7  15   2        -0.0047765408
      6   6  11  14         0.0047625424
      6   6  14  11         0.0047625424
      4   7  17   5         0.0047594487
      7   4   5  17         0.0047594487
      3   5   9  21        -0.0047588278
      5   3  21   9        -0.0047588278
      4   7  18   1         0.0047464487
      7   4   1  18         0.0047464487
      3   6  14   5        -0.0047457638
      6   3   5  14        -0.0047457638
      3   6   2  24        -0.0047442612
      6   3  24   2        -0.0047442612
      4   4  25  25        -0.0047397995
      3   6  13   9         0.0047348678
      6   3   9  13         0.0047348678
      6   7  18  11        -0.0047207581
      7   6  11  18        -0.0047207581
      2   7  10  23        -0.0047140250
      7   2  23  10        -0.0047140250
      5   5  12  15         0.0047007915
      5   5  15  12         0.0047007915
      2   3  14  15        -0.0046975317
      3   2  15  14        -0.0046975317
      3   7   3   7         0.0046912825
      7   3   7   3         0.0046912825
      4   4   9  17         0.0046903620
      4   4  17   9         0.0046903620
      4   6  25  24         0.0046802991
      6   4  24  25         0.0046802991
      2   6   5  23         0.0046791688
      6   2  23   5         0.0046791688
      7   7  19  19        -0.0046763197
      4   5   6   2         0.0046745977
      5   4   2   6         0.0046745977
      6   7   3   4         0.0046668539
      7   6   4   3         0.0046668539
      6   6   2  13        -0.0046593854
      6   6  13   2        -0.0046593854
      4   6   8  10        -0.0046580163
      6   4  10   8        -0.0046580163
      2   6  10  19        -0.0046576170
      6   2  19  10        -0.0046576170
      2   7  11   6        -0.0046548011
      7   2   6  11        -0.0046548011
      5   6   3  24         0.0046521156
      6   5  24   3         0.0046521156
      2   3   1   3        -0.0046482903
      3   2   3   1        -0.0046482903
      1   1  42  42        -0.0046419467
      1   1  43  43        -0.0046407022
      0   1  42  43        -0.0046392495
      1   0  43  42        -0.0046392495
      0   1  43  42        -0.0046391877
      1   0  42  43        -0.0046391877
      0   0  42  42        -0.0046386113
      6   7  14  11        -0.0046381755
      7   6  11  14        -0.0046381755
      0   0  43  43        -0.0046374436
      2   6   5  12        -0.0046355013
      6   2  12   5        -0.0046355013
      3   6  16  11         0.0046341816
      6   3  11  16         0.0046341816
      2   3  12  22        -0.0046289797
      3   2  22  12        -0.0046289797
      4   6   4   1        -0.0046277215
      6   4   1   4        -0.0046277215
      4   6   3  15        -0.0046253842
      6   4  15   3        -0.0046253842
      3   4   1   0         0.0046253372
      4   3   0   1         0.0046253372
      2   5   5   0         0.0046229950
      5   2   0   5         0.0046229950
      4   4   1  13        -0.0046219906
      4   4  13   1        -0.0046219906
      4   6   1   4        -0.0046202317
      6   4   4   1        -0.0046202317
      4   7  15  11        -0.0046171209
      7   4  11  15        -0.0046171209
      4   7  15  14         0.0046138743
      7   4  14  15         0.0046138743
[...]
      6   0   7  43        -0.0000007660
      0   1   2  18        -0.0000007656
      1   0  18   2        -0.0000007656
      0   1  19  22         0.0000007625
      1   0  22  19         0.0000007625
      0   5  27  19        -0.0000007609
      5   0  19  27        -0.0000007609
      4   5  25  42         0.0000007591
      5   4  42  25         0.0000007591
      1   5  30  41         0.0000007577
      5   1  41  30         0.0000007577
      1   4  19  25        -0.0000007526
      4   1  25  19        -0.0000007526
      1   3  42  18        -0.0000007504
      3   1  18  42        -0.0000007504
      2   3  43  30        -0.0000007489
      3   2  30  43        -0.0000007489
      0   1  23  30        -0.0000007452
      1   0  30  23        -0.0000007452
      1   3  30  34        -0.0000007363
      3   1  34  30        -0.0000007363
      0   3  42  31        -0.0000007348
      3   0  31  42        -0.0000007348
      1   7  43  33        -0.0000007332
      7   1  33  43        -0.0000007332
      0   5  34  18        -0.0000007331
      5   0  18  34        -0.0000007331
      0   6  21   2        -0.0000007274
      6   0   2  21        -0.0000007274
      0   0  20  29        -0.0000007274
      0   0  29  20        -0.0000007274
      0   5  35  31         0.0000007174
      5   0  31  35         0.0000007174
      1   3  43  31        -0.0000007164
      3   1  31  43        -0.0000007164
      0   5  35  19         0.0000007098
      5   0  19  35         0.0000007098
      0   2  19  36        -0.0000007080
      2   0  36  19        -0.0000007080
      3   5  43  30        -0.0000007055
      5   3  30  43        -0.0000007055
      1   2  19   3        -0.0000007041
      2   1   3  19        -0.0000007041
      0   4  18  16        -0.0000006990
      4   0  16  18        -0.0000006990
      0   3  43  18        -0.0000006985
      3   0  18  43        -0.0000006985
      1   2  19  11         0.0000006980
      2   1  11  19         0.0000006980
      0   2  30   3        -0.0000006950
      2   0   3  30        -0.0000006950
      0   1  22  19         0.0000006917
      1   0  19  22         0.0000006917
      1   7  42  28        -0.0000006916
      7   1  28  42        -0.0000006916
      1   3  30   4        -0.0000006897
      3   1   4  30        -0.0000006897
      0   2  42  18        -0.0000006895
      2   0  18  42        -0.0000006895
      1   5  30  36         0.0000006875
      5   1  36  30         0.0000006875
      0   1  31  22        -0.0000006868
      1   0  22  31        -0.0000006868
      0   1  15  18        -0.0000006801
      1   0  18  15        -0.0000006801
      0   3  22  31        -0.0000006788
      3   0  31  22        -0.0000006788
      0   1   1  18        -0.0000006733
      1   0  18   1        -0.0000006733
      1   3  18  37         0.0000006693
      3   1  37  18         0.0000006693
      0   4  42   7        -0.0000006600
      4   0   7  42        -0.0000006600
      0   0   2  19         0.0000006582
      0   0  19   2         0.0000006582
      2   7  42   6         0.0000006576
      7   2   6  42         0.0000006576
      5   7  43  38         0.0000006571
      7   5  38  43         0.0000006571
      0   1  26  19         0.0000006500
      1   0  19  26         0.0000006500
      1   6  42  21         0.0000006488
      6   1  21  42         0.0000006488
      0   5   9   8         0.0000006468
      5   0   8   9         0.0000006468
      1   6  40   0         0.0000006438
      6   1   0  40         0.0000006438
      4   6  42  31        -0.0000006360
      6   4  31  42        -0.0000006360
      1   2  34  31        -0.0000006329
      2   1  31  34        -0.0000006329
      0   6  42  29         0.0000006299
      6   0  29  42         0.0000006299
      0   1  18  23         0.0000006295
      1   0  23  18         0.0000006295
      0   7  39  22        -0.0000006294
      7   0  22  39        -0.0000006294
      0   0  22  30        -0.0000006175
      0   0  30  22        -0.0000006175
      0   6  25   2         0.0000006174
      6   0   2  25         0.0000006174
      1   4   3   8        -0.0000006123
      4   1   8   3        -0.0000006123
      1   5  23  18        -0.0000006108
      5   1  18  23        -0.0000006108
      1   2  23  30         0.0000006104
      2   1  30  23         0.0000006104
      1   5  19  37         0.0000006021
      5   1  37  19         0.0000006021
      0   1  18   2        -0.0000006016
      1   0   2  18        -0.0000006016
      0   1  36  30        -0.0000006009
      1   0  30  36        -0.0000006009
      0   7  15  25        -0.0000005982
      7   0  25  15        -0.0000005982
      0   2  35  19        -0.0000005969
      2   0  19  35        -0.0000005969
      0   3  27  18        -0.0000005944
      3   0  18  27        -0.0000005944
      0   7   9  34         0.0000005909
      7   0  34   9         0.0000005909
      2   3  42  19         0.0000005906
      3   2  19  42         0.0000005906
      1   2  43  18        -0.0000005898
      2   1  18  43        -0.0000005898
      2   3  42  31         0.0000005861
      3   2  31  42         0.0000005861
      0   4  42  21        -0.0000005833
      4   0  21  42        -0.0000005833
      0   0   4  30        -0.0000005830
      0   0  30   4        -0.0000005830
      0   2  12  19         0.0000005821
      2   0  19  12         0.0000005821
      0   6   9   3        -0.0000005807
      6   0   3   9        -0.0000005807
      0   5  31  15         0.0000005800
      5   0  15  31         0.0000005800
      0   2  19  23         0.0000005748
      2   0  23  19         0.0000005748
      1   7  18  28        -0.0000005736
      7   1  28  18        -0.0000005736
      0   6  42   6        -0.0000005724
      6   0   6  42        -0.0000005724
      0   1  18  15        -0.0000005720
      1   0  15  18        -0.0000005720
      5   5  30  40        -0.0000005634
      5   5  40  30        -0.0000005634
      0   6  25  27         0.0000005618
      6   0  27  25         0.0000005618
      4   7  42   2        -0.0000005616
      7   4   2  42        -0.0000005616
      3   3  30  42        -0.0000005616
      3   3  42  30        -0.0000005616
      6   6  25  32        -0.0000005589
      6   6  32  25        -0.0000005589
      3   7  19  33         0.0000005582
      7   3  33  19         0.0000005582
      0   3  18   1         0.0000005573
      3   0   1  18         0.0000005573
      0   3   3   2         0.0000005545
      3   0   2   3         0.0000005545
      0   1  18   1        -0.0000005531
      1   0   1  18        -0.0000005531
      6   7  27  43         0.0000005524
      7   6  43  27         0.0000005524
      1   5  25  29         0.0000005518
      5   1  29  25         0.0000005518
      2   7   8  42         0.0000005476
      7   2  42   8         0.0000005476
      2   3  43  18        -0.0000005398
      3   2  18  43        -0.0000005398
      0   4  42  10         0.0000005357
      4   0  10  42         0.0000005357
      0   5  30  18        -0.0000005336
      5   0  18  30        -0.0000005336
      0   3  11  19        -0.0000005335
      3   0  19  11        -0.0000005335
      0   5  18  11        -0.0000005313
      5   0  11  18        -0.0000005313
      0   5  26  18         0.0000005295
      5   0  18  26         0.0000005295
      0   1  14  12         0.0000005242
      1   0  12  14         0.0000005242
      1   5  22   1        -0.0000005230
      5   1   1  22        -0.0000005230
      1   5  25   9         0.0000005170
      5   1   9  25         0.0000005170
      4   5   7  42         0.0000005023
      5   4  42   7         0.0000005023
      1   7  43  39         0.0000004970
      7   1  39  43         0.0000004970
      3   5  42   2        -0.0000004947
      5   3   2  42        -0.0000004947
      0   1  19  26         0.0000004922
      1   0  26  19         0.0000004922
      3   7  42  38        -0.0000004921
      7   3  38  42        -0.0000004921
      1   3  31  13        -0.0000004877
      3   1  13  31        -0.0000004877
      1   5  31  37        -0.0000004865
      5   1  37  31        -0.0000004865
      0   5  30  11         0.0000004831
      5   0  11  30         0.0000004831
      1   6  42   5         0.0000004807
      6   1   5  42         0.0000004807
      0   5  40  18        -0.0000004801
      5   0  18  40        -0.0000004801
      1   3  31   1         0.0000004781
      3   1   1  31         0.0000004781
      0   6  42   8        -0.0000004729
      6   0   8  42        -0.0000004729
      1   3  35  19        -0.0000004716
      3   1  19  35        -0.0000004716
      0   5   4  18         0.0000004683
      5   0  18   4         0.0000004683
      3   5  43  18        -0.0000004676
      5   3  18  43        -0.0000004676
      0   5  18  26         0.0000004635
      5   0  26  18         0.0000004635
      1   1  30  34        -0.0000004487
      1   1  34  30        -0.0000004487
      1   1  19  19        -0.0000004430
      0   0  19  19        -0.0000004422
      3   5  18  43        -0.0000004376
      5   3  43  18        -0.0000004376
      2   7  43   7         0.0000004360
      7   2   7  43         0.0000004360
      0   0  30  34        -0.0000004327
      0   0  34  30        -0.0000004327
      0   3  40  19        -0.0000004316
      3   0  19  40        -0.0000004316
      0   4  42   5         0.0000004307
      4   0   5  42         0.0000004307
      3   3  19  43         0.0000004287
      3   3  43  19         0.0000004287
      1   2   2  18         0.0000004246
      2   1  18   2         0.0000004246
      0   0  18  22        -0.0000004203
      0   0  22  18        -0.0000004203
      0   0  31  41        -0.0000004119
      0   0  41  31        -0.0000004119
      3   5  40  13         0.0000003896
      5   3  13  40         0.0000003896
      0   7  33   3         0.0000003893
      7   0   3  33         0.0000003893
      1   1  15  19         0.0000003858
      1   1  19  15         0.0000003858
      1   5  43  30         0.0000003824
      5   1  30  43         0.0000003824
      0   5  25  32        -0.0000003808
      5   0  32  25        -0.0000003808
      0   1  23  18         0.0000003775
      1   0  18  23         0.0000003775
      1   3  19  23        -0.0000003767
      3   1  23  19        -0.0000003767
      1   2  11  31        -0.0000003745
      2   1  31  11        -0.0000003745
      0   2  31  13        -0.0000003682
      2   0  13  31        -0.0000003682
      5   6  42   8        -0.0000003608
      6   5   8  42        -0.0000003608
      1   2  18  35        -0.0000003606
      2   1  35  18        -0.0000003606
      3   3  26  42         0.0000003594
      3   3  42  26         0.0000003594
      1   2   7  24        -0.0000003583
      2   1  24   7        -0.0000003583
      0   5  42  30        -0.0000003421
      5   0  30  42        -0.0000003421
      4   7  35  40         0.0000003384
      7   4  40  35         0.0000003384
      1   2  15  18         0.0000003345
      2   1  18  15         0.0000003345
      1   1  31  41        -0.0000003316
      1   1  41  31        -0.0000003316
      0   2  30  37         0.0000003268
      2   0  37  30         0.0000003268
      2   5   1  19        -0.0000003259
      5   2  19   1        -0.0000003259
      1   2  35  18         0.0000003248
      2   1  18  35         0.0000003248
      1   6  35  33        -0.0000003231
      6   1  33  35        -0.0000003231
      1   5   1  18        -0.0000003159
      5   1  18   1        -0.0000003159
      1   5  19  42        -0.0000003150
      5   1  42  19        -0.0000003150
      0   5  18  42        -0.0000003128
      5   0  42  18        -0.0000003128
      1   2  19  26         0.0000003121
      2   1  26  19         0.0000003121
      0   5  19   2         0.0000003041
      5   0   2  19         0.0000003041
      0   5  25   5         0.0000003039
      5   0   5  25         0.0000003039
      1   5  28   8        -0.0000003013
      5   1   8  28        -0.0000003013
      2   5  42  18        -0.0000003002
      5   2  18  42        -0.0000003002
      1   5  18  43        -0.0000002916
      5   1  43  18        -0.0000002916
      3   3  18  42         0.0000002855
      3   3  42  18         0.0000002855
      1   4  30  24         0.0000002851
      4   1  24  30         0.0000002851
      0   1  22  31        -0.0000002848
      1   0  31  22        -0.0000002848
      0   1  30  36        -0.0000002800
      1   0  36  30        -0.0000002800
      0   5  19  35         0.0000002683
      5   0  35  19         0.0000002683
      0   0  15  19         0.0000002676
      0   0  19  15         0.0000002676
      0   1  26  31        -0.0000002675
      1   0  31  26        -0.0000002675
      0   3  26  19         0.0000002669
      3   0  19  26         0.0000002669
      5   7  42  24        -0.0000002649
      7   5  24  42        -0.0000002649
      0   4  31  20         0.0000002553
      4   0  20  31         0.0000002553
      2   3  19  42         0.0000002544
      3   2  42  19         0.0000002544
      1   6  30  38        -0.0000002452
      6   1  38  30        -0.0000002452
      2   5  18  42        -0.0000002402
      5   2  42  18        -0.0000002402
      7   7  34  42        -0.0000002387
      7   7  42  34        -0.0000002387
      1   7  23   8         0.0000002365
      7   1   8  23         0.0000002365
      0   6  43  21        -0.0000002364
      6   0  21  43        -0.0000002364
      2   2  18  42        -0.0000002332
      2   2  42  18        -0.0000002332
      1   7  42  25         0.0000002324
      7   1  25  42         0.0000002324
      1   1  18  22        -0.0000002301
      1   1  22  18        -0.0000002301
      3   5  31  42        -0.0000002271
      5   3  42  31        -0.0000002271
      1   6  30  25         0.0000002252
      6   1  25  30         0.0000002252
      0   4  43  20        -0.0000002114
      4   0  20  43        -0.0000002114
      0   2  18  40        -0.0000002096
      2   0  40  18        -0.0000002096
      0   3  18  13         0.0000002044
      3   0  13  18         0.0000002044
      4   7  42  27        -0.0000002030
      7   4  27  42        -0.0000002030
      0   3  15  26        -0.0000001851
      3   0  26  15        -0.0000001851
      0   1   4  19        -0.0000001831
      1   0  19   4        -0.0000001831
      1   2  31   3        -0.0000001800
      2   1   3  31        -0.0000001800
      0   5  19  43        -0.0000001778
      5   0  43  19        -0.0000001778
      0   5  19   1         0.0000001758
      5   0   1  19         0.0000001758
      1   7  20  35         0.0000001755
      7   1  35  20         0.0000001755
      1   7   8  27         0.0000001628
      7   1  27   8         0.0000001628
      1   1  20  29        -0.0000001590
      1   1  29  20        -0.0000001590
      0   7  43   7        -0.0000001528
      7   0   7  43        -0.0000001528
      2   2  19  43        -0.0000001503
      2   2  43  19        -0.0000001503
      1   5  42  19         0.0000001410
      5   1  19  42         0.0000001410
      0   7  43  16        -0.0000001401
      7   0  16  43        -0.0000001401
      1   3  23  19        -0.0000001385
      3   1  19  23        -0.0000001385
      0   7   2  25        -0.0000001378
      7   0  25   2        -0.0000001378
      1   1  11  18        -0.0000001276
      1   1  18  11        -0.0000001276
      1   5  43  18        -0.0000001268
      5   1  18  43        -0.0000001268
      0   2  19  35         0.0000001257
      2   0  35  19         0.0000001257
      3   5  42  19         0.0000001227
      5   3  19  42         0.0000001227
      1   7   0  30         0.0000001220
      7   1  30   0         0.0000001220
      2   3  30  43        -0.0000001208
      3   2  43  30        -0.0000001208
      3   5  19  42         0.0000001185
      5   3  42  19         0.0000001185
      7   7  36  43        -0.0000001146
      7   7  43  36        -0.0000001146
      1   4  43  10         0.0000001133
      4   1  10  43         0.0000001133
      0   2  18  34         0.0000001107
      2   0  34  18         0.0000001107
      2   5  43   1        -0.0000001094
      5   2   1  43        -0.0000001094
      0   1  15  30        -0.0000001023
      1   0  30  15        -0.0000001023
      0   3  16  24         0.0000000997
      3   0  24  16         0.0000000997
      0   5  43  19         0.0000000969
      5   0  19  43         0.0000000969
      2   5  42  37        -0.0000000912
      5   2  37  42        -0.0000000912
      1   5  30  43         0.0000000852
      5   1  43  30         0.0000000852
      0   4  30  28        -0.0000000847
      4   0  28  30        -0.0000000847
      1   7  16  37        -0.0000000834
      7   1  37  16        -0.0000000834
      0   2  23  19        -0.0000000830
      2   0  19  23        -0.0000000830
      1   4  42  20        -0.0000000802
      4   1  20  42        -0.0000000802
      0   1  19   4        -0.0000000773
      1   0   4  19        -0.0000000773
      0   0  11  18        -0.0000000715
      0   0  18  11        -0.0000000715
      1   1   1  31        -0.0000000703
      1   1  31   1        -0.0000000703
      1   2  18  13         0.0000000660
      2   1  13  18         0.0000000660
      0   3   4  31        -0.0000000647
      3   0  31   4        -0.0000000647
      5   5  18  42         0.0000000630
      5   5  42  18         0.0000000630
      0   5  42  18        -0.0000000598
      5   0  18  42        -0.0000000598
      0   1  30  15        -0.0000000573
      1   0  15  30        -0.0000000573
      2   2  31  43         0.0000000523
      2   2  43  31         0.0000000523
      0   2  40  18         0.0000000499
      2   0  18  40         0.0000000499
      0   6  30  33        -0.0000000468
      6   0  33  30        -0.0000000468
      0   0   1  31        -0.0000000386
      0   0  31   1        -0.0000000386
      1   5  40  19         0.0000000376
      5   1  19  40         0.0000000376
      0   6  31  28         0.0000000336
      6   0  28  31         0.0000000336
      1   3  19  35        -0.0000000329
      3   1  35  19        -0.0000000329
      0   7  11  39         0.0000000292
      7   0  39  11         0.0000000292
      1   5  43  37        -0.0000000202
      5   1  37  43        -0.0000000202
      1   6  30   5         0.0000000185
      6   1   5  30         0.0000000185
      0   6  28  27        -0.0000000147
      6   0  27  28        -0.0000000147
      0   6  11   9        -0.0000000109
      6   0   9  11        -0.0000000109

    SCF energy       (wfn)                    =  -77.893870313696823
    Reference energy (file100)                =  -77.893870313697107

    Opposite-spin MP2 correlation energy      =   -0.253229448254149
    Same-spin MP2 correlation energy          =   -0.061866523186131
    MP2 correlation energy                    =   -0.315095971440280
      * MP2 total energy                      =  -78.208966285137393

    Opposite-spin CCSD correlation energy     =   -0.306526944705749
    Same-spin CCSD correlation energy         =   -0.053470076864120
    CCSD correlation energy                   =   -0.359997021569869
      * CCSD total energy                     =  -78.253867335266975


*** tstop() called on Berts-MacBook-Pro.local at Wed Dec  6 22:27:02 2017
Module time:
	user time   =     148.17 seconds =       2.47 minutes
	system time =       6.36 seconds =       0.11 minutes
	total time  =        155 seconds =       2.58 minutes
Total time:
	user time   =     208.41 seconds =       3.47 minutes
	system time =       7.74 seconds =       0.13 minutes
	total time  =        217 seconds =       3.62 minutes

*** Psi4 exiting successfully. Buy a developer a beer!
