
    -----------------------------------------------------------------------
          Psi4: An Open-Source Ab Initio Electronic Structure Package
                               Psi4 1.1 release

                         Git: Rev {HEAD} add49b9 


    R. M. Parrish, L. A. Burns, D. G. A. Smith, A. C. Simmonett,
    A. E. DePrince III, E. G. Hohenstein, U. Bozkaya, A. Yu. Sokolov,
    R. Di Remigio, R. M. Richard, J. F. Gonthier, A. M. James,
    H. R. McAlexander, A. Kumar, M. Saitow, X. Wang, B. P. Pritchard,
    P. Verma, H. F. Schaefer III, K. Patkowski, R. A. King, E. F. Valeev,
    F. A. Evangelista, J. M. Turney, T. D. Crawford, and C. D. Sherrill,
    J. Chem. Theory Comput. in press (2017).
    (doi: 10.1021/acs.jctc.7b00174)

    -----------------------------------------------------------------------


    Psi4 started on: Wednesday, 06 December 2017 09:18PM

    Process ID:  11900
    PSIDATADIR: /anaconda3/share/psi4
    Memory:     500.0 MiB
    Threads:    1
    
  ==> Input File <==

--------------------------------------------------------------------------
"""This is a template for psi4 input format."""
import numpy
import sys

from openfermion.config import *
from openfermion.ops._interaction_tensor import (one_body_basis_change,
                                              two_body_basis_change)
from openfermion.hamiltonians import MolecularData
from numpy import array

sys.path.append('/Users/wadejong/Desktop/Quantum-Computing/OpenFermion/OpenFermion-Psi4/openfermionpsi4')
from _psi4_conversion_functions import *

# Set number of threads in PSI4
set_num_threads(8)

# Set memory that job can use in megabytes.
memory 8000 mb

# Initialize molecular data.
_description = 'ethylene_0.07854'
if _description == 'None':
    _description = None
molecule = MolecularData([['C', array([ 0.      ,  0.      ,  0.673055])], ['C', array([ 0.      ,  0.      , -0.673055])], ['H', array([ 0.      ,  0.934981,  1.246807])], ['H', array([ 0.      , -0.934981,  1.246807])], ['H', array([ 0.07335776, -0.93209877, -1.246807  ])], ['H', array([-0.07335776,  0.93209877, -1.246807  ])]],
                         'DZP',
                         1,
                         0,
                         _description,
                          filename='/Users/wadejong/Desktop/QCQCSiddiqi/8_Qubit_Simulation/data/H4-C2_DZP_singlet_ethylene_0.07854')

# Set molecular geometry and symmetry.
molecule mol {
C 0.0 0.0 0.673055
C 0.0 0.0 -0.673055
H 0.0 0.934981 1.246807
H 0.0 -0.934981 1.246807
H 0.07335776378271619 -0.9320987656111337 -1.246807
H -0.07335776378271619 0.9320987656111337 -1.246807
symmetry c1
}
mol.set_multiplicity(1)
mol.set_molecular_charge(0)

# Set reference and guess.
if molecule.multiplicity == 1:
    set reference rhf
    set guess sad
    set sad_frac_occ true
else:
    set reference rohf
    set guess sad
    set sad_frac_occ true

# Set global parameters of calculation.
set globals {
    basis DZP
    freeze_core false
    fail_on_maxiter true
    df_scf_guess false
    guess sad
    sad_frac_occ true
    opdm false
    tpdm false
    soscf true
    scf_type pk
    diis true
    maxiter 1e6
    num_amps_print 1e6
    r_convergence 1e-7
    d_convergence 1e-7
    e_convergence 1e-7
    ints_tolerance EQUALITY_TOLERANCE
    damping_percentage 0
}

# Run self-consistent field (SCF) calculation.
if True:
    try:

        hf_energy, hf_wavefunction = energy('scf', return_wfn=True)
        scf_wfn = hf_wavefunction
        if True:
            print('Hartree-Fock energy for {} ({} electrons) is {}.'.format(
                molecule.name, molecule.n_electrons, hf_energy))
    except:
        if True:
            print('WARNING: SCF calculation failed.')
        else:
            raise
    else:
        # Get orbitals and Fock matrix.
        molecule.hf_energy = hf_energy
        molecule.nuclear_repulsion = mol.nuclear_repulsion_energy()
        molecule.canonical_orbitals = numpy.asarray(hf_wavefunction.Ca())
        molecule.n_orbitals = molecule.canonical_orbitals.shape[0]
        molecule.n_qubits = 2 * molecule.n_orbitals
        molecule.orbital_energies = numpy.asarray(hf_wavefunction.epsilon_a())
        molecule.fock_matrix = numpy.asarray(hf_wavefunction.Fa())

        # Get integrals using MintsHelper.
        mints = MintsHelper(hf_wavefunction.basisset())
        molecule.one_body_integrals = one_body_basis_change(
            numpy.asarray(mints.ao_kinetic()), molecule.canonical_orbitals)
        molecule.one_body_integrals += one_body_basis_change(
            numpy.asarray(mints.ao_potential()), molecule.canonical_orbitals)
        two_body_integrals = numpy.asarray(mints.ao_eri())
        two_body_integrals.reshape((molecule.n_orbitals, molecule.n_orbitals,
                                    molecule.n_orbitals, molecule.n_orbitals))
        two_body_integrals = numpy.einsum('psqr', two_body_integrals)
        two_body_integrals = two_body_basis_change(
            two_body_integrals, molecule.canonical_orbitals)
        molecule.two_body_integrals = two_body_integrals
        molecule.save()


# Perform MP2 energy calculation if there are at least two electrons.
if True:
    try:
        assert molecule.n_electrons > 1
        mp2_energy = energy('mp2',ref_wfn=scf_wfn)
        if True:
            print('MP2 energy for {} ({} electrons) is {}.'.format(
                molecule.name, molecule.n_electrons, mp2_energy))
    except:
        if True:
            print('WARNING: MP2 calculation failed.')
        else:
            raise
    else:
        molecule.mp2_energy = mp2_energy
        molecule.save()


# Perform configuration interaction singles and doubles (CISD) calculation.
if True:
    set qc_module detci
    try:
        cisd_energy, cisd_wavefunction = energy('cisd', ref_wfn=scf_wfn, return_wfn=True)
        if True:
            print('CISD energy for {} ({} electrons) is {}.'.format(
                molecule.name, molecule.n_electrons, cisd_energy))
    except:
        if True:
            print('WARNING: CISD calculation failed.')
        else:
            raise
    else:
        # For the functions below, "a" and "b" refer to "up and "down" spins.
        molecule.cisd_energy = cisd_energy

        # Get 1-RDM from CISD calculation.
        """cisd_one_rdm_a = numpy.array(cisd_wavefunction.get_opdm(
            0, 0, 'A', True)).reshape(molecule.n_orbitals, molecule.n_orbitals)
        cisd_one_rdm_b = numpy.array(cisd_wavefunction.get_opdm(
            0, 0, 'B', True)).reshape(molecule.n_orbitals, molecule.n_orbitals)

        # Get 2-RDM from CISD calculation.
        cisd_two_rdm_aa = numpy.array(cisd_wavefunction.get_tpdm(
            'AA', False)).reshape(molecule.n_orbitals, molecule.n_orbitals,
                                  molecule.n_orbitals, molecule.n_orbitals)
        cisd_two_rdm_ab = numpy.array(cisd_wavefunction.get_tpdm(
            'AB', False)).reshape(molecule.n_orbitals, molecule.n_orbitals,
                                  molecule.n_orbitals, molecule.n_orbitals)
        cisd_two_rdm_bb = numpy.array(cisd_wavefunction.get_tpdm(
            'BB', False)).reshape(molecule.n_orbitals, molecule.n_orbitals,
                                  molecule.n_orbitals, molecule.n_orbitals)

        # Get overall RDMs.
        cisd_one_rdm, cisd_two_rdm = unpack_spatial_rdm(
            cisd_one_rdm_a, cisd_one_rdm_b, cisd_two_rdm_aa,
            cisd_two_rdm_ab, cisd_two_rdm_bb)

        # Store 1-RDM in molecule file, 2-RDM separately in other file.
        molecule.cisd_one_rdm = cisd_one_rdm
        molecule.cisd_two_rdm = cisd_two_rdm
        molecule.save()"""


# Perform exact diagonalization.
if False:
    set qc_module detci
    try:
        fci_energy, fci_wavefunction = energy('fci', ref_wfn=scf_wfn, return_wfn=True)
        if True:
            print('FCI energy for {} ({} electrons) is {}.'.format(
                molecule.name, molecule.n_electrons, fci_energy))
    except:
        if True:
            print('WARNING: FCI calculation failed.')
        else:
            raise
    else:
        # For the functions below, "a" and "b" refer to "up and "down" spins.
        molecule.fci_energy = fci_energy

        # Get 1-RDM from FCI calculation.
        """fci_one_rdm_a = numpy.array(fci_wavefunction.get_opdm(
            0, 0, 'A', True)).reshape(molecule.n_orbitals, molecule.n_orbitals)
        fci_one_rdm_b = numpy.array(fci_wavefunction.get_opdm(
            0, 0, 'B', True)).reshape(molecule.n_orbitals, molecule.n_orbitals)

        # Get 2-RDM from FCI calculation.
        fci_two_rdm_aa = numpy.array(fci_wavefunction.get_tpdm(
            'AA', False)).reshape(molecule.n_orbitals, molecule.n_orbitals,
                                  molecule.n_orbitals, molecule.n_orbitals)
        fci_two_rdm_ab = numpy.array(fci_wavefunction.get_tpdm(
            'AB', False)).reshape(molecule.n_orbitals, molecule.n_orbitals,
                                  molecule.n_orbitals, molecule.n_orbitals)
        fci_two_rdm_bb = numpy.array(fci_wavefunction.get_tpdm(
            'BB', False)).reshape(molecule.n_orbitals, molecule.n_orbitals,
                                  molecule.n_orbitals, molecule.n_orbitals)

        # Get overall RDMs.
        fci_one_rdm, fci_two_rdm = unpack_spatial_rdm(
            fci_one_rdm_a, fci_one_rdm_b,
            fci_two_rdm_aa, fci_two_rdm_ab, fci_two_rdm_bb)

        # Store 1-RDM in molecule file, 2-RDM separately in other file.
        molecule.fci_one_rdm = fci_one_rdm
        molecule.fci_two_rdm = fci_two_rdm
        molecule.save()"""


# Perform coupled cluster singles and doubles (CCSD) calculation.
if True:
    set qc_module ccenergy
    try:
        ccsd_energy = energy('ccsd',ref_wfn=scf_wfn)
        if True:
            print('CCSD energy for {} ({} electrons) is {}.'.format(
                molecule.name, molecule.n_electrons, ccsd_energy))
    except:
        if True:
            print('WARNING: CCSD calculation failed.')
        else:
            raise
    else:
        molecule.ccsd_energy = ccsd_energy

        # Merge CC amplitudes into molecule by parsing
        psi_filename = outfile_name()
        ccsd_amplitudes = parse_psi4_ccsd_amplitudes(
            2 * molecule.n_orbitals,
            molecule.get_n_alpha_electrons(),
            molecule.get_n_beta_electrons(),
            psi_filename)
        molecule.ccsd_amplitudes = ccsd_amplitudes
        molecule.save()
--------------------------------------------------------------------------
  Python driver attempted to set threads to 8.
  Psi4 was compiled without OpenMP, setting threads to 1.

  Memory set to   7.451 GiB by Python driver.

*** tstart() called on Berts-MacBook-Pro.local
*** at Wed Dec  6 21:18:58 2017

   => Loading Basis Set <=

    Name: DZP
    Role: ORBITAL
    Keyword: BASIS
    atoms 1-2 entry C          line    73 file /anaconda3/share/psi4/basis/dzp.gbs 
    atoms 3-6 entry H          line    16 file /anaconda3/share/psi4/basis/dzp.gbs 


         ---------------------------------------------------------
                                   SCF
            by Justin Turney, Rob Parrish, and Andy Simmonett
                              RHF Reference
                        1 Threads,   7629 MiB Core
         ---------------------------------------------------------

  ==> Geometry <==

    Molecular point group: c1
    Full point group: D2

    Geometry (in Angstrom), charge = 0, multiplicity = 1:

       Center              X                  Y                   Z               Mass       
    ------------   -----------------  -----------------  -----------------  -----------------
           C          0.000000000000     0.000000000000     0.673055000000    12.000000000000
           C          0.000000000000     0.000000000000    -0.673055000000    12.000000000000
           H          0.036707181798     0.934260163533     1.246807000000     1.007825032070
           H         -0.036707181798    -0.934260163533     1.246807000000     1.007825032070
           H          0.036707181798    -0.934260163533    -1.246807000000     1.007825032070
           H         -0.036707181798     0.934260163533    -1.246807000000     1.007825032070

  Running in c1 symmetry.

  Rotational constants: A =      4.78350  B =      0.98328  C =      0.81605 [cm^-1]
  Rotational constants: A = 143405.72603  B =  29478.00847  C =  24464.64002 [MHz]
  Nuclear repulsion =   33.006835134396837

  Charge       = 0
  Multiplicity = 1
  Electrons    = 16
  Nalpha       = 8
  Nbeta        = 8

  ==> Algorithm <==

  SCF Algorithm Type is PK.
  DIIS enabled.
  MOM disabled.
  Fractional occupation disabled.
  Guess Type is SAD.
  Energy threshold   = 1.00e-07
  Density threshold  = 1.00e-07
  Integral threshold = 0.00e+00

  ==> Primary Basis <==

  Basis Set: DZP
    Blend: DZP
    Number of shells: 26
    Number of basis function: 52
    Number of Cartesian functions: 52
    Spherical Harmonics?: false
    Max angular momentum: 2

  ==> Pre-Iterations <==

   -------------------------------------------------------
    Irrep   Nso     Nmo     Nalpha   Nbeta   Ndocc  Nsocc
   -------------------------------------------------------
     A         52      52       0       0       0       0
   -------------------------------------------------------
    Total      52      52       8       8       8       0
   -------------------------------------------------------

  ==> Integral Setup <==

  Using in-core PK algorithm.
   Calculation information:
      Number of atoms:                   6
      Number of AO shells:              26
      Number of primitives:             50
      Number of atomic orbitals:        52
      Number of basis functions:        52

      Integral cutoff                 1.00e-12
      Number of threads:                 1

  Performing in-core PK
  Using 1900262 doubles for integral storage.
  We computed 61760 shell quartets total.
  Whereas there are 61776 unique shell quartets.
  ==> DiskJK: Disk-Based J/K Matrices <==

    J tasked:                  Yes
    K tasked:                  Yes
    wK tasked:                  No
    Memory (MB):              5722
    Schwarz Cutoff:          1E-12

    OpenMP threads:              1
  Minimum eigenvalue in the overlap matrix is 4.1825203820E-03.
  Using Symmetric Orthogonalization.

  SCF Guess: Superposition of Atomic Densities via on-the-fly atomic UHF.

  ==> Iterations <==

                        Total Energy        Delta E     RMS |[F,P]|

   @RHF iter   0:   -69.16286618877949   -6.91629e+01   1.01511e-01 
   @RHF iter   1:   -74.36239363701807   -5.19953e+00   3.98617e-02 
   @RHF iter   2:   -77.23635076545702   -2.87396e+00   2.36521e-02 DIIS/DAMP
   @RHF iter   3:   -78.03766100783248   -8.01310e-01   2.31934e-03 DIIS/DAMP
   @RHF iter   4:   -78.04801545323144   -1.03544e-02   3.84048e-04 SOSCF, nmicro = 4/DAMP
   @RHF iter   5:   -78.04847426164969   -4.58808e-04   1.82348e-06 SOSCF, nmicro = 4/DAMP
   @RHF iter   6:   -78.04847426828840   -6.63871e-09   1.82165e-09 SOSCF, conv/DAMP

  ==> Post-Iterations <==

    Orbital Energies (a.u.)
    -----------------------

    Doubly Occupied:                                                      

       1A    -11.244818     2A    -11.243258     3A     -1.026860  
       4A     -0.787825     5A     -0.635818     6A     -0.581975  
       7A     -0.503868     8A     -0.371332  

    Virtual:                                                              

       9A      0.146821    10A      0.257604    11A      0.286933  
      12A      0.357756    13A      0.396044    14A      0.413050  
      15A      0.443902    16A      0.473418    17A      0.486846  
      18A      0.612155    19A      0.664294    20A      0.676006  
      21A      0.825634    22A      1.029875    23A      1.194165  
      24A      1.202338    25A      1.323628    26A      1.530226  
      27A      1.564073    28A      1.580720    29A      1.674329  
      30A      1.922233    31A      2.064830    32A      2.068683  
      33A      2.074637    34A      2.160876    35A      2.227067  
      36A      2.417635    37A      2.474748    38A      2.551884  
      39A      2.586997    40A      2.777279    41A      2.826707  
      42A      2.917237    43A      2.968050    44A      3.198701  
      45A      3.312435    46A      3.492749    47A      3.617028  
      48A      3.908088    49A      4.209066    50A      4.553532  
      51A     27.624589    52A     27.663952  

    Final Occupation by Irrep:
              A 
    DOCC [     8 ]

  Energy converged.

  @RHF Final Energy:   -78.04847426828840

   => Energetics <=

    Nuclear Repulsion Energy =             33.0068351343968374
    One-Electron Energy =                -169.3191101301025299
    Two-Electron Energy =                  58.2638007274173049
    DFT Exchange-Correlation Energy =       0.0000000000000000
    Empirical Dispersion Energy =           0.0000000000000000
    PCM Polarization Energy =               0.0000000000000000
    EFP Energy =                            0.0000000000000000
    Total Energy =                        -78.0484742682884018



Properties will be evaluated at   0.000000,   0.000000,   0.000000 Bohr

Properties computed using the SCF density matrix

  Nuclear Dipole Moment: (a.u.)
     X:     0.0000      Y:     0.0000      Z:     0.0000

  Electronic Dipole Moment: (a.u.)
     X:     0.0000      Y:    -0.0000      Z:     0.0000

  Dipole Moment: (a.u.)
     X:     0.0000      Y:    -0.0000      Z:     0.0000     Total:     0.0000

  Dipole Moment: (Debye)
     X:     0.0000      Y:    -0.0000      Z:     0.0000     Total:     0.0000


*** tstop() called on Berts-MacBook-Pro.local at Wed Dec  6 21:18:58 2017
Module time:
	user time   =       0.41 seconds =       0.01 minutes
	system time =       0.07 seconds =       0.00 minutes
	total time  =          0 seconds =       0.00 minutes
Total time:
	user time   =       0.41 seconds =       0.01 minutes
	system time =       0.07 seconds =       0.00 minutes
	total time  =          0 seconds =       0.00 minutes

*** tstart() called on Berts-MacBook-Pro.local
*** at Wed Dec  6 21:19:03 2017


  //>>>>>>>>>>>>>>>>>>>>>>>>>>>>>>>>>>>//
  //               DFMP2               //
  //<<<<<<<<<<<<<<<<<<<<<<<<<<<<<<<<<<<//

   => Loading Basis Set <=

    Name: (DZP AUX)
    Role: RIFIT
    Keyword: DF_BASIS_MP2
    atoms 1-2 entry C          line   269 file /anaconda3/share/psi4/basis/def2-qzvpp-ri.gbs 
    atoms 3-6 entry H          line    23 file /anaconda3/share/psi4/basis/def2-qzvpp-ri.gbs 

	 --------------------------------------------------------
	                          DF-MP2                         
	      2nd-Order Density-Fitted Moller-Plesset Theory     
	              RMP2 Wavefunction,   1 Threads             
	                                                         
	        Rob Parrish, Justin Turney, Andy Simmonett,      
	           Ed Hohenstein, and C. David Sherrill          
	 --------------------------------------------------------

   => Auxiliary Basis Set <=

  Basis Set: (DZP AUX)
    Blend: DEF2-QZVPP-RI
    Number of shells: 130
    Number of basis function: 506
    Number of Cartesian functions: 666
    Spherical Harmonics?: true
    Max angular momentum: 5

	 --------------------------------------------------------
	                 NBF =    52, NAUX =   506
	 --------------------------------------------------------
	   CLASS    FOCC     OCC    AOCC    AVIR     VIR    FVIR
	   PAIRS       0       8       8      44      44       0
	 --------------------------------------------------------

	-----------------------------------------------------------
	 ==================> DF-MP2 Energies <==================== 
	-----------------------------------------------------------
	 Reference Energy          =     -78.0484742682884018 [Eh]
	 Singles Energy            =      -0.0000000000000000 [Eh]
	 Same-Spin Energy          =      -0.0602139631342300 [Eh]
	 Opposite-Spin Energy      =      -0.2434355663112676 [Eh]
	 Correlation Energy        =      -0.3036495294454976 [Eh]
	 Total Energy              =     -78.3521237977338956 [Eh]
	-----------------------------------------------------------
	 ================> DF-SCS-MP2 Energies <================== 
	-----------------------------------------------------------
	 SCS Same-Spin Scale       =       0.3333333333333333 [-]
	 SCS Opposite-Spin Scale   =       1.2000000000000000 [-]
	 SCS Same-Spin Energy      =      -0.0200713210447433 [Eh]
	 SCS Opposite-Spin Energy  =      -0.2921226795735211 [Eh]
	 SCS Correlation Energy    =      -0.3121940006182644 [Eh]
	 SCS Total Energy          =     -78.3606682689066645 [Eh]
	-----------------------------------------------------------


*** tstop() called on Berts-MacBook-Pro.local at Wed Dec  6 21:19:03 2017
Module time:
	user time   =       0.30 seconds =       0.00 minutes
	system time =       0.05 seconds =       0.00 minutes
	total time  =          0 seconds =       0.00 minutes
Total time:
	user time   =       4.68 seconds =       0.08 minutes
	system time =       0.27 seconds =       0.00 minutes
	total time  =          5 seconds =       0.08 minutes
 MINTS: Wrapper to libmints.
   by Justin Turney

   Calculation information:
      Number of threads:                 1
      Number of atoms:                   6
      Number of AO shells:              26
      Number of SO shells:              26
      Number of primitives:             50
      Number of atomic orbitals:        52
      Number of basis functions:        52

      Number of irreps:                  1
      Integral cutoff                 0.00e+00
      Number of functions per irrep: [  52 ]

 OEINTS: Overlap, kinetic, potential, dipole, and quadrupole integrals
         stored in file 35.

      Computing two-electron integrals...done
      Computed 841117 non-zero two-electron integrals.
        Stored in file 33.


         ---------------------------------------------------------
                          Configuration Interaction
                            (a 'D E T C I' module)

                 C. David Sherrill, Daniel G. A. Smith, and
                              Matt L. Leininger
         ---------------------------------------------------------


   ==> Parameters <==

    EX LEVEL       =        2      H0 BLOCKSIZE  =     1000
    VAL EX LEVEL   =        0      H0 GUESS SIZE =     1000
    H0COUPLINGSIZE =        0      H0 COUPLING   =       NO
    MAXITER        =       24      NUM PRINT     =       20
    NUM ROOTS      =        1      ICORE         =        1
    PRINT LVL      =        1      FCI           =       NO
    R CONV         = 1.00e-07      MIXED         =      YES
    E CONV         = 1.00e-07      MIXED4        =      YES
    R4S            =       NO      REPL OTF      =       NO
    DIAG METHOD    =      SEM      FOLLOW ROOT   =        0
    PRECONDITIONER = DAVIDSON      UPDATE        = DAVIDSON
    S              =   0.0000      Ms0           =      YES
    GUESS VECTOR   =  H0BLOCK      OPENTYPE      =     NONE
    COLLAPSE SIZE  =        1      HD AVG        = EVANGELISTI
    MAX NUM VECS   =       25      REF SYM       =     AUTO
    IOPEN        =       NO

    EX ALLOW       =  1  1 
    STATE AVERAGE  =  0(1.00) 

   ==> CI Orbital and Space information <==

    RAS1 LVL      =        7      A RAS3 MAX    =        2
    RAS1 MIN      =       14      B RAS3 MAX    =        2
    A RAS1 LVL    =        7      RAS4 LVL      =       52
    A RAS1 MIN    =        6      A RAS4 MAX    =        0
    A RAS1 MAX    =        8      B RAS4 MAX    =        0
    B RAS1 LVL    =        7      RAS4 MAX      =        0
    B RAS1 MIN    =        6      A RAS34 MAX   =        2
    B RAS1 MAX    =        8      B RAS34 MAX   =        2
    RAS3 LVL      =        8      RAS34 MAX     =        2
    RAS3 MAX      =        2
   ------------------------------------
               Space    Total     A
   ------------------------------------
                 Nso       52    52
                 Nmo       52    52
               Ndocc        8     8
               Nsocc        0     0
   ------------------------------------
              CI Spaces
   ------------------------------------
        Dropped DOCC        0     0
                RAS1        8     8
                RAS2        0     0
                RAS3       44    44
                RAS4        0     0
      Active (total)       52    52
        Dropped UOCC        0     0
   ------------------------------------

   ==> Setting up CI strings <==

    There are 26841 alpha and 26841 beta strings
    The CI space requires 177585 (1.78E+05) determinants and 6 blocks

   ==> Transforming CI integrals <==

	Presorting SO-basis two-electron integrals.
	Sorting File: SO Ints (nn|nn) nbuckets = 1
	Transforming the one-electron integrals and constructing Fock matrices
	Starting first half-transformation.
	Sorting half-transformed integrals.
	First half integral transformation complete.
	Starting second half-transformation.
	Two-electron integral transformation complete.

   ==> Starting CI iterations <==

    H0 Block Eigenvalue = -78.08354128

    Simultaneous Expansion Method (Block Davidson Method)
    Using 1 initial trial vectors

     Iter   Root       Total Energy       Delta E      C RMS

   @CI  0:     0    -78.083541281681   -1.1109E+02   1.5414E+00  
   @CI  1:     0    -78.345794749213   -2.6225E-01   1.5152E-01  
   @CI  2:     0    -78.355051500369   -9.2568E-03   4.2692E-02  
   @CI  3:     0    -78.355630931434   -5.7943E-04   9.0504E-03  
   @CI  4:     0    -78.355660715631   -2.9784E-05   2.4469E-03  
   @CI  5:     0    -78.355662261565   -1.5459E-06   5.1093E-04  
   @CI  6:     0    -78.355662342793   -8.1227E-08   1.3190E-04  
   @CI  7:     0    -78.355662347195   -4.4024E-09   2.7695E-05  
   @CI  8:     0    -78.355662347425   -2.2989E-10   7.1013E-06  
   @CI  9:     0    -78.355662347441   -1.5504E-11   1.9115E-06  
   @CI 10:     0    -78.355662347442   -1.0374E-12   4.3391E-07  
    Warning: Norm of correction (root 0) is < 1.0E-13
   @CI 11:     0    -78.355662347442   -4.2633E-14   1.0651E-07  
    Warning: Norm of correction (root 0) is < 1.0E-13
   @CI 12:     0    -78.355662347442   -4.2633E-14   2.1650E-08 c

   ==> Energetics <==

    SCF energy =            0.000000000000000
    Total CI energy =     -78.355662347441793

   ==> CISD root 0 information <==

    CISD Root 0 energy =   -78.355662347441793

   The 20 most important determinants:

    *   1    0.951542  (    0,    0)  1AX 2AX 3AX 4AX 5AX 6AX 7AX 8AX 
    *   2   -0.092937  (    1,    1)  1AX 2AX 3AX 4AX 5AX 6AX 7AX 9AX 
    *   3   -0.043162  (    1,   73)  1AX 2AX 3AX 4AX 5AX 6AX 7AX 9AA 18AB 
    *   4   -0.043162  (   73,    1)  1AX 2AX 3AX 4AX 5AX 6AX 7AX 9AB 18AA 
    *   5   -0.028603  (   73,   73)  1AX 2AX 3AX 4AX 5AX 6AX 7AX 18AX 
    *   6   -0.026992  (   99,   99)  1AX 2AX 3AX 4AX 5AX 7AX 8AX 21AX 
    *   7   -0.025783  (    1,   99)  1AX 2AX 3AX 4AX 5AX 6AA 7AX 8AB 9AA 21AB 
    *   8   -0.025783  (   99,    1)  1AX 2AX 3AX 4AX 5AX 6AB 7AX 8AA 9AB 21AA 
    *   9   -0.023699  (   65,   65)  1AX 2AX 3AX 4AX 5AX 6AX 7AX 17AX 
    *  10   -0.023016  (    0, 2202)  1AX 2AX 3AX 4AX 5AX 6AA 7AX 8AA 9AB 21AB 
    *  11   -0.023016  ( 2202,    0)  1AX 2AX 3AX 4AX 5AX 6AB 7AX 8AB 9AA 21AA 
    *  12   -0.022929  (   26,   26)  1AX 2AX 3AX 4AX 5AX 6AX 8AX 12AX 
    *  13   -0.021227  (   28,   28)  1AX 2AX 3AX 4AX 6AX 7AX 8AX 12AX 
    *  14   -0.019681  (   73,   99)  1AX 2AX 3AX 4AX 5AX 6AA 7AX 8AB 18AA 21AB 
    *  15   -0.019681  (   99,   73)  1AX 2AX 3AX 4AX 5AX 6AB 7AX 8AA 18AB 21AA 
    *  16    0.019004  (    0,   65)  1AX 2AX 3AX 4AX 5AX 6AX 7AX 8AA 17AB 
    *  17    0.019004  (   65,    0)  1AX 2AX 3AX 4AX 5AX 6AX 7AX 8AB 17AA 
    *  18   -0.018124  (    5,    5)  1AX 2AX 3AX 5AX 6AX 7AX 8AX 9AX 
    *  19   -0.017969  (   43,   43)  1AX 2AX 3AX 4AX 5AX 7AX 8AX 14AX 
    *  20   -0.017056  (   34,   34)  1AX 2AX 3AX 4AX 5AX 6AX 8AX 13AX 

		 "A good bug is a dead bug" 

			 - Starship Troopers

		 "I didn't write FORTRAN.  That's the problem."

			 - Edward Valeev
 MINTS: Wrapper to libmints.
   by Justin Turney

   Calculation information:
      Number of threads:                 1
      Number of atoms:                   6
      Number of AO shells:              26
      Number of SO shells:              26
      Number of primitives:             50
      Number of atomic orbitals:        52
      Number of basis functions:        52

      Number of irreps:                  1
      Integral cutoff                 0.00e+00
      Number of functions per irrep: [  52 ]

 OEINTS: Overlap, kinetic, potential, dipole, and quadrupole integrals
         stored in file 35.

      Computing two-electron integrals...done
      Computed 841117 non-zero two-electron integrals.
        Stored in file 33.


*** tstart() called on Berts-MacBook-Pro.local
*** at Wed Dec  6 21:19:54 2017


	Wfn Parameters:
	--------------------
	Wavefunction         = CCSD
	Number of irreps     = 1
	Number of MOs        = 52
	Number of active MOs = 52
	AO-Basis             = NONE
	Semicanonical        = false
	Reference            = RHF
	Print Level          = 1

	IRREP	# MOs	# FZDC	# DOCC	# SOCC	# VIRT	# FZVR
	-----	-----	------	------	------	------	------
	 A	   52	    0	    8	    0	    44	    0
	Transforming integrals...
	IWL integrals will be deleted.
	(OO|OO)...
	Presorting SO-basis two-electron integrals.
	Sorting File: SO Ints (nn|nn) nbuckets = 1
	Transforming the one-electron integrals and constructing Fock matrices
	Starting first half-transformation.
	Sorting half-transformed integrals.
	First half integral transformation complete.
	Starting second half-transformation.
	Two-electron integral transformation complete.
	(OO|OV)...
	Starting second half-transformation.
	Two-electron integral transformation complete.
	(OO|VV)...
	Starting second half-transformation.
	Two-electron integral transformation complete.
	(OV|OO)...
	Starting first half-transformation.
	Sorting half-transformed integrals.
	First half integral transformation complete.
	Starting second half-transformation.
	Two-electron integral transformation complete.
	(OV|OV)...
	Starting second half-transformation.
	Two-electron integral transformation complete.
	(OV|VV)...
	Starting second half-transformation.
	Two-electron integral transformation complete.
	(VV|OO)...
	Starting first half-transformation.
	Sorting half-transformed integrals.
	First half integral transformation complete.
	Starting second half-transformation.
	Two-electron integral transformation complete.
	(VV|OV)...
	Starting second half-transformation.
	Two-electron integral transformation complete.
	(VV|VV)...
	Starting second half-transformation.
	Two-electron integral transformation complete.
	Frozen core energy     =      0.00000000000000

	Size of irrep 0 of <ab|cd> integrals:      3.748 (MW) /     29.985 (MB)
	Total:                                     3.748 (MW) /     29.985 (MB)

	Size of irrep 0 of <ia|bc> integrals:      0.681 (MW) /      5.452 (MB)
	Total:                                     0.681 (MW) /      5.452 (MB)

	Size of irrep 0 of tijab amplitudes:       0.124 (MW) /      0.991 (MB)
	Total:                                     0.124 (MW) /      0.991 (MB)

	Nuclear Rep. energy          =     33.00683513439684
	SCF energy                   =    -78.04847426828840
	One-electron energy          =   -169.31911018197098
	Two-electron energy          =     58.26380077928589
	Reference energy             =    -78.04847426828826

*** tstop() called on Berts-MacBook-Pro.local at Wed Dec  6 21:19:54 2017
Module time:
	user time   =       0.26 seconds =       0.00 minutes
	system time =       0.36 seconds =       0.01 minutes
	total time  =          0 seconds =       0.00 minutes
Total time:
	user time   =      55.16 seconds =       0.92 minutes
	system time =       1.18 seconds =       0.02 minutes
	total time  =         56 seconds =       0.93 minutes

*** tstart() called on Berts-MacBook-Pro.local
*** at Wed Dec  6 21:19:54 2017

            **************************
            *                        *
            *        CCENERGY        *
            *                        *
            **************************

    Nuclear Rep. energy (wfn)     =   33.006835134396837
    SCF energy          (wfn)     =  -78.048474268288402
    Reference energy    (file100) =  -78.048474268288260

    Input parameters:
    -----------------
    Wave function   =     CCSD
    Reference wfn   =     RHF
    Brueckner       =     No
    Memory (Mbytes) =     8000.0
    Maxiter         =   1000000
    R_Convergence   =     1.0e-07
    E_Convergence   =     1.0e-07
    Restart         =     Yes
    DIIS            =     Yes
    AO Basis        =     NONE
    ABCD            =     NEW
    Cache Level     =     2
    Cache Type      =     LOW
    Print Level     =     1
    Num. of threads =     1
    # Amps to Print =     1000000
    Print MP2 Amps? =     No
    Analyze T2 Amps =     No
    Print Pair Ener =     No
    Local CC        =     No
    SCS-MP2         =     False
    SCSN-MP2        =     False
    SCS-CCSD        =     False

MP2 correlation energy -0.3036570460021097
                Solving CC Amplitude Equations
                ------------------------------
  Iter             Energy              RMS        T1Diag      D1Diag    New D1Diag    D2Diag
  ----     ---------------------    ---------   ----------  ----------  ----------   --------
     0        -0.303657046002110    0.000e+00    0.000000    0.000000    0.000000    0.156586
     1        -0.323576644419062    5.259e-02    0.006576    0.023082    0.023082    0.171778
     2        -0.333299525995256    2.140e-02    0.008055    0.029087    0.029087    0.188821
     3        -0.334447328265470    7.143e-03    0.009069    0.033166    0.033166    0.195509
     4        -0.334500190404221    2.282e-03    0.009209    0.033891    0.033891    0.198178
     5        -0.334518639692153    4.392e-04    0.009218    0.033948    0.033948    0.198547
     6        -0.334518743418627    1.006e-04    0.009216    0.033946    0.033946    0.198573
     7        -0.334518682572501    1.987e-05    0.009215    0.033943    0.033943    0.198579
     8        -0.334518664533215    5.093e-06    0.009215    0.033942    0.033942    0.198579
     9        -0.334518584528538    1.645e-06    0.009214    0.033942    0.033942    0.198579
    10        -0.334518619475407    5.638e-07    0.009214    0.033942    0.033942    0.198579
    11        -0.334518624301869    1.607e-07    0.009214    0.033942    0.033942    0.198579
    12        -0.334518628684424    4.281e-08    0.009214    0.033942    0.033942    0.198579

    Iterations converged.


    Largest TIA Amplitudes:
              7   8         0.0316659453
              7  18         0.0111932385
              4   3         0.0059587793
              5  21         0.0047400522
              3  13         0.0044562330
              7  28         0.0038146052
              6  34         0.0035193942
              5   5         0.0034457642
              4  24        -0.0031604171
              4  14         0.0030340032
              2  23         0.0030034058
              2   2        -0.0028148253
              2  40         0.0026575080
              3  25         0.0025536856
              6  11         0.0023042509
              3  30        -0.0021534171
              5  33        -0.0020674501
              7   7         0.0020607636
              7  11         0.0018949008
              3  41         0.0018410111
              4  37         0.0018382843
              6  22        -0.0017696432
              4  27         0.0015469420
              2  10         0.0015248401
              2  21         0.0015123865
              3  35         0.0015111842
              2   5         0.0014762420
              5   2        -0.0014574189
              6   7         0.0014198461
              5  36        -0.0013734431
              5  15        -0.0012734414
              3  38         0.0012554112
              3  29        -0.0012122356
              2  36         0.0011536462
              3   4         0.0009794391
              6   8         0.0009207179
              3  12         0.0008799383
              3  16         0.0008004584
              3   1        -0.0007671762
              2  15         0.0007257739
              5  10        -0.0006933830
              2  33        -0.0006201776
              5  23         0.0006068381
              4   6         0.0005646118
              6  19        -0.0005616290
              1  13        -0.0005474595
              5  40         0.0005166296
              6  39         0.0004794308
              0  40        -0.0004620838
              7  19        -0.0003669506
              1  41        -0.0003655000
              6  18         0.0003633500
              0  10        -0.0003389219
              1   1        -0.0003282607
              5  20         0.0002921559
              0  15        -0.0002900032
              1  12        -0.0002759328
              4   0        -0.0002710944
              7  34        -0.0002466337
              0   2        -0.0002383623
              1  35        -0.0002204019
              1   4        -0.0001886563
              1  38        -0.0001785629
              4  31         0.0001742239
              2  32        -0.0001710208
              4   9        -0.0001668437
              7  22         0.0001634175
              0  36        -0.0001539298
              0   5        -0.0001355102
              1  25        -0.0001310377
              2  42         0.0001231167
              1  43         0.0000975343
              0  42         0.0000968596
              0  21        -0.0000961350
              5  32        -0.0000958086
              3  43         0.0000907832
              1  16        -0.0000854988
              6  28         0.0000837762
              7  39         0.0000821904
              1  30        -0.0000753736
              1  29        -0.0000488221
              0  23        -0.0000473792
              4  26        -0.0000408582
              0  33        -0.0000355579
              5  42         0.0000189110
              3  17        -0.0000075246
              1  17         0.0000028450
              2  20         0.0000010007
              0  20        -0.0000007134
              0  32        -0.0000002958

    Largest TIjAb Amplitudes:
      7   7   0   0        -0.1299159449
      7   7   0   9        -0.0569022592
      7   7   9   0        -0.0569022592
      7   7   9   9        -0.0342077042
      5   5  12  12        -0.0310146946
      5   7  12   0        -0.0298551403
      7   5   0  12        -0.0298551403
      6   6   3   3        -0.0289178389
      7   7   8   8        -0.0273587712
      4   4   3   3        -0.0256949677
      5   7  12   9        -0.0227549426
      7   5   9  12        -0.0227549426
      5   5   5   5        -0.0215364520
      3   3   0   0        -0.0212631773
      6   6   4   4        -0.0209043251
      4   6   3  11         0.0194594899
      6   4  11   3         0.0194594899
      7   7  10  10        -0.0189498289
      5   7   5   8         0.0181696301
      7   5   8   5         0.0181696301
      3   7   2   0        -0.0181594653
      7   3   0   2        -0.0181594653
      5   5   3   3        -0.0179044294
      4   6   2   4        -0.0176044630
      6   4   4   2        -0.0176044630
      2   7  12   0        -0.0174623139
      7   2   0  12        -0.0174623139
      6   6   7   7        -0.0173268221
      4   4   2   2        -0.0168163125
      6   7   7   8        -0.0166048541
      7   6   8   7        -0.0166048541
      2   7   1   0        -0.0161971172
      7   2   0   1        -0.0161971172
      4   4   6   6        -0.0159774334
      4   7   6   8        -0.0159669588
      7   4   8   6        -0.0159669588
      6   7   6   0        -0.0159497700
      7   6   0   6        -0.0159497700
      4   5   3   5         0.0159403695
      5   4   5   3         0.0159403695
      5   6   3   4         0.0157995469
      6   5   4   3         0.0157995469
      6   6  11  11        -0.0154082382
      4   6   6   7        -0.0153945992
      6   4   7   6        -0.0153945992
      3   7   0   2        -0.0151589392
      7   3   2   0        -0.0151589392
      2   2  12  12        -0.0149243821
      2   7   0  12        -0.0148792265
      7   2  12   0        -0.0148792265
      4   6  11   3         0.0143409049
      6   4   3  11         0.0143409049
      6   6   2   2        -0.0142519047
      5   6   5   7         0.0142315863
      6   5   7   5         0.0142315863
      6   7   6   9        -0.0140933085
      7   6   9   6        -0.0140933085
      4   6   3   7        -0.0140643018
      6   4   7   3        -0.0140643018
      5   5  18  18        -0.0139822549
      2   7  12   9        -0.0138627382
      7   2   9  12        -0.0138627382
      2   7   1   9        -0.0138565037
      7   2   9   1        -0.0138565037
      4   7   3   8        -0.0137788850
      7   4   8   3        -0.0137788850
      4   7   7   9        -0.0137525561
      7   4   9   7        -0.0137525561
      5   6  12   6        -0.0137394523
      6   5   6  12        -0.0137394523
      3   5   1   5         0.0136070058
      5   3   5   1         0.0136070058
      3   5   0  18         0.0135058600
      5   3  18   0         0.0135058600
      4   7   7   0        -0.0134561403
      7   4   0   7        -0.0134561403
      3   7   1   8        -0.0133025437
      7   3   8   1        -0.0133025437
      2   7  13   9        -0.0132435899
      7   2   9  13        -0.0132435899
      5   6   5  11        -0.0132184455
      6   5  11   5        -0.0132184455
      6   6  15  15        -0.0128747508
      6   6   7  11         0.0126022939
      6   6  11   7         0.0126022939
      4   5   7  12        -0.0125680789
      5   4  12   7        -0.0125680789
      3   5   2  12        -0.0124965593
      5   3  12   2        -0.0124965593
      3   3  12  12        -0.0123850778
      4   6   4   2        -0.0123821239
      6   4   2   4        -0.0123821239
      4   6   3  19        -0.0123359978
      6   4  19   3        -0.0123359978
      3   6   1   7        -0.0122095701
      6   3   7   1        -0.0122095701
      3   7   2   9        -0.0121121663
      7   3   9   2        -0.0121121663
      4   5   2   3         0.0120752039
      5   4   3   2         0.0120752039
      3   7   0  10         0.0120385691
      7   3  10   0         0.0120385691
      4   4   7   7        -0.0120316669
      3   4   0  17        -0.0120313283
      4   3  17   0        -0.0120313283
      3   6   0  20         0.0120234684
      6   3  20   0         0.0120234684
      3   4   1   3        -0.0119895525
      4   3   3   1        -0.0119895525
      4   5   6   5         0.0119815142
      5   4   5   6         0.0119815142
      3   3   2   2        -0.0119746419
      6   6   6   6        -0.0119436450
      6   6  16  16        -0.0119346993
      7   7  12  12        -0.0119274245
      2   5  13  12        -0.0119004625
      5   2  12  13        -0.0119004625
      2   7   0   4        -0.0118029150
      7   2   4   0        -0.0118029150
      2   7   0   1        -0.0117893366
      7   2   1   0        -0.0117893366
      4   6   7   6        -0.0117624210
      6   4   6   7        -0.0117624210
      6   7  11   8         0.0116086685
      7   6   8  11         0.0116086685
      2   7  10   8        -0.0115422069
      7   2   8  10        -0.0115422069
      2   7  13   0        -0.0114995338
      7   2   0  13        -0.0114995338
      3   3   1   1        -0.0114715597
      4   4   3  14        -0.0114416408
      4   4  14   3        -0.0114416408
      3   6   1  11         0.0114207840
      6   3  11   1         0.0114207840
      4   4  11  11        -0.0113463279
      3   7   5   9        -0.0113110078
      7   3   9   5        -0.0113110078
      6   6  14  14        -0.0112670612
      4   6  15   4        -0.0112536959
      6   4   4  15        -0.0112536959
      6   6   3  14        -0.0112507792
      6   6  14   3        -0.0112507792
      7   7  18  18        -0.0112132305
      3   7  13   8        -0.0111969592
      7   3   8  13        -0.0111969592
      3   7   0   5        -0.0111585287
      7   3   5   0        -0.0111585287
      5   5   2   2        -0.0110397798
      3   3   4   4        -0.0109029501
      5   5  14  14        -0.0108969695
      4   4   4   4        -0.0108811024
      4   7  11   9         0.0108600707
      7   4   9  11         0.0108600707
      5   5   3  14        -0.0108021978
      5   5  14   3        -0.0108021978
      3   7   0  23        -0.0107819077
      7   3  23   0        -0.0107819077
      4   4  17  17        -0.0107677253
      3   7   5   0        -0.0107375055
      7   3   0   5        -0.0107375055
      4   6  19   3        -0.0107131448
      6   4   3  19        -0.0107131448
      6   6  20  20        -0.0106944025
      3   3  15  15        -0.0105737874
      4   7  11   0         0.0105234741
      7   4   0  11         0.0105234741
      4   6  15  16        -0.0104845956
      6   4  16  15        -0.0104845956
      3   5   4   2         0.0104685431
      5   3   2   4         0.0104685431
      4   6  17  20         0.0104646068
      6   4  20  17         0.0104646068
      6   6   4  16        -0.0103447225
      6   6  16   4        -0.0103447225
      4   4  14  14        -0.0102627415
      2   2   3   3        -0.0102321242
      2   7   4   0        -0.0101872323
      7   2   0   4        -0.0101872323
      4   6   4  15        -0.0101808292
      6   4  15   4        -0.0101808292
      3   5   2   4         0.0101396623
      5   3   4   2         0.0101396623
      4   6  16  15        -0.0100608838
      6   4  15  16        -0.0100608838
      5   6   3  16         0.0100259115
      6   5  16   3         0.0100259115
      3   3   5   5        -0.0100245200
      4   5  15   3         0.0099170233
      5   4   3  15         0.0099170233
      6   6  19  19        -0.0098696893
      4   4  15  15        -0.0098218622
      3   5  13   5         0.0098186043
      5   3   5  13         0.0098186043
      2   5   1  12        -0.0097838816
      5   2  12   1        -0.0097838816
      7   7  17  17        -0.0097147043
      2   2   0   0        -0.0096579300
      4   6   6  11         0.0095653568
      6   4  11   6         0.0095653568
      4   6  14  19        -0.0095438596
      6   4  19  14        -0.0095438596
      3   4  13   3        -0.0095381411
      4   3   3  13        -0.0095381411
      3   5  10  12        -0.0095202650
      5   3  12  10        -0.0095202650
      4   5  17  18         0.0095178384
      5   4  18  17         0.0095178384
      4   4   7  11         0.0095175112
      4   4  11   7         0.0095175112
      2   7   9  12        -0.0094876178
      7   2  12   9        -0.0094876178
      2   5  10   5         0.0094861658
      5   2   5  10         0.0094861658
      6   6   2  15        -0.0094719441
      6   6  15   2        -0.0094719441
      2   5  12  12        -0.0094647324
      5   2  12  12        -0.0094647324
      3   6   3   2        -0.0094007481
      6   3   2   3        -0.0094007481
      3   4   1   6        -0.0093017220
      4   3   6   1        -0.0093017220
      5   6  14  16         0.0092794837
      6   5  16  14         0.0092794837
      5   5   4   4        -0.0092367526
      3   7   0  15        -0.0092162225
      7   3  15   0        -0.0092162225
      6   7   0   3        -0.0091830810
      7   6   3   0        -0.0091830810
      5   5   0   0        -0.0091593742
      3   3   0   9        -0.0091157943
      3   3   9   0        -0.0091157943
      3   5  12   2        -0.0091112793
      5   3   2  12        -0.0091112793
      6   6  17  17        -0.0090931409
      3   3   2  15        -0.0090604770
      3   3  15   2        -0.0090604770
      3   6   3  15        -0.0090055018
      6   3  15   3        -0.0090055018
      3   5   5  12        -0.0089428392
      5   3  12   5        -0.0089428392
      4   4   3   6        -0.0089041660
      4   4   6   3        -0.0089041660
      2   4  10   6        -0.0088931926
      4   2   6  10        -0.0088931926
      3   3   3   3        -0.0088312885
      4   6  20  17         0.0088026200
      6   4  17  20         0.0088026200
      5   6   1   3         0.0086945373
      6   5   3   1         0.0086945373
      3   6  13  11         0.0086350669
      6   3  11  13         0.0086350669
      2   2  13  13        -0.0086266948
      5   7   4   0         0.0086015910
      7   5   0   4         0.0086015910
      3   6  13   7        -0.0085909156
      6   3   7  13        -0.0085909156
      2   7   9   1        -0.0085757262
      7   2   1   9        -0.0085757262
      4   4  16  16        -0.0085728253
      6   6   0   0        -0.0085520030
      5   6  18  20        -0.0085029795
      6   5  20  18        -0.0085029795
      5   7  13   0        -0.0084968227
      7   5   0  13        -0.0084968227
      5   7   0   4         0.0084961508
      7   5   4   0         0.0084961508
      3   4   3   4        -0.0084838448
      4   3   4   3        -0.0084838448
      2   6   0  17        -0.0084742539
      6   2  17   0        -0.0084742539
      4   4   2  15        -0.0084093707
      4   4  15   2        -0.0084093707
      5   7   3  17        -0.0084061757
      7   5  17   3        -0.0084061757
      4   4  20  20        -0.0084037963
      2   7   2   8        -0.0083360362
      7   2   8   2        -0.0083360362
      3   6   5   3        -0.0083153996
      6   3   3   5        -0.0083153996
      2   2  12  13        -0.0083085013
      2   2  13  12        -0.0083085013
      2   2  18  18        -0.0083048698
      2   7   0  16        -0.0082991337
      7   2  16   0        -0.0082991337
      3   5   4  15         0.0082701453
      5   3  15   4         0.0082701453
      3   5  15   4         0.0082236952
      5   3   4  15         0.0082236952
      3   6  14  15        -0.0082111414
      6   3  15  14        -0.0082111414
      4   7   3  18         0.0082018282
      7   4  18   3         0.0082018282
      2   2   0   9        -0.0081662915
      2   2   9   0        -0.0081662915
      2   2  10  10        -0.0081450387
      3   7   9   2        -0.0081179180
      7   3   2   9        -0.0081179180
      4   6  19  14        -0.0081028392
      6   4  14  19        -0.0081028392
      2   6  10   7        -0.0080242848
      6   2   7  10        -0.0080242848
      6   6   1   1        -0.0080232811
      2   4   0  20         0.0080108780
      4   2  20   0         0.0080108780
      5   5   4  12         0.0080100069
      5   5  12   4         0.0080100069
      2   2   9   9        -0.0079314372
      4   6   7   3        -0.0078735129
      6   4   3   7        -0.0078735129
      4   4  19  19        -0.0078514800
      4   5  15  14         0.0078399853
      5   4  14  15         0.0078399853
      2   4  13   7        -0.0078214592
      4   2   7  13        -0.0078214592
      3   6  15   3        -0.0077671159
      6   3   3  15        -0.0077671159
      4   4  21  21        -0.0077658423
      4   6  11   6         0.0077588345
      6   4   6  11         0.0077588345
      3   6   4  11         0.0077546705
      6   3  11   4         0.0077546705
      3   7  15   0        -0.0077275687
      7   3   0  15        -0.0077275687
      5   5   1   1        -0.0077087248
      3   4   5   7        -0.0076868018
      4   3   7   5        -0.0076868018
      3   4  13   6        -0.0076721279
      4   3   6  13        -0.0076721279
      3   4   5  11         0.0076236650
      4   3  11   5         0.0076236650
      5   6  14   4         0.0076110029
      6   5   4  14         0.0076110029
      3   3   1  13        -0.0076076821
      3   3  13   1        -0.0076076821
      3   3  16  16        -0.0076064876
      5   5  15  15        -0.0075984260
      5   7  14  17        -0.0075366234
      7   5  17  14        -0.0075366234
      2   2   3  14        -0.0075236992
      2   2  14   3        -0.0075236992
      3   5  18   0         0.0075235304
      5   3   0  18         0.0075235304
      3   6   2  24        -0.0075180689
      6   3  24   2        -0.0075180689
      6   6  11  19         0.0075111011
      6   6  19  11         0.0075111011
      4   5   3  21         0.0075064961
      5   4  21   3         0.0075064961
      2   6   3  12        -0.0074951135
      6   2  12   3        -0.0074951135
      3   5   5   1         0.0074933563
      5   3   1   5         0.0074933563
      5   6   4   3         0.0074550006
      6   5   3   4         0.0074550006
      3   5   4   5         0.0074526303
      5   3   5   4         0.0074526303
      3   6   2   6        -0.0074505918
      6   3   6   2        -0.0074505918
      3   3  13  13        -0.0074453704
      4   5  11  12         0.0073919700
      5   4  12  11         0.0073919700
      2   4  13  11         0.0073895468
      4   2  11  13         0.0073895468
      7   7  23  23        -0.0073707300
      3   7  12  18         0.0073344508
      7   3  18  12         0.0073344508
      7   7   5  10         0.0073301634
      7   7  10   5         0.0073301634
      7   7   1  12        -0.0073095364
      7   7  12   1        -0.0073095364
      2   4   1   7        -0.0072947492
      4   2   7   1        -0.0072947492
      3   7  10   9        -0.0072308798
      7   3   9  10        -0.0072308798
      3   3  18  18        -0.0072280685
      4   7   0  11         0.0072203144
      7   4  11   0         0.0072203144
      6   6  22  22        -0.0072074279
      2   2  14  14        -0.0071826933
      5   6  19  15         0.0071812333
      6   5  15  19         0.0071812333
      2   3   2   4        -0.0071627836
      3   2   4   2        -0.0071627836
      2   4   2   6        -0.0071580274
      4   2   6   2        -0.0071580274
      5   5   2  15        -0.0071551496
      5   5  15   2        -0.0071551496
      3   6   5   6        -0.0071392822
      6   3   6   5        -0.0071392822
      3   5  15  16         0.0071108101
      5   3  16  15         0.0071108101
      2   6   3   1        -0.0070922092
      6   2   1   3        -0.0070922092
      2   6  13   6        -0.0070785656
      6   2   6  13        -0.0070785656
      3   4   4   3        -0.0069942562
      4   3   3   4        -0.0069942562
      3   7   4   8        -0.0069942001
      7   3   8   4        -0.0069942001
      3   6  20   0         0.0069870687
      6   3   0  20         0.0069870687
      4   6   2  16        -0.0069772847
      6   4  16   2        -0.0069772847
      6   6  21  21        -0.0069530098
      3   5  16  15         0.0069510161
      5   3  15  16         0.0069510161
      7   7   1   1        -0.0069452725
      5   5  10  10        -0.0069355023
      3   3   2   5        -0.0068698650
      3   3   5   2        -0.0068698650
      3   7  15   9        -0.0068516434
      7   3   9  15        -0.0068516434
      3   6   4   7        -0.0068169975
      6   3   7   4        -0.0068169975
      2   7   4   9        -0.0068094414
      7   2   9   4        -0.0068094414
      2   4   1  11         0.0068078477
      4   2  11   1         0.0068078477
      2   4  12  11         0.0067885564
      4   2  11  12         0.0067885564
      3   3  20  20        -0.0067661914
      3   6  10   6        -0.0067640956
      6   3   6  10        -0.0067640956
      3   4   4   6        -0.0067632620
      4   3   6   4        -0.0067632620
      2   6   1   6        -0.0067488161
      6   2   6   1        -0.0067488161
      3   3   4  16        -0.0067451126
      3   3  16   4        -0.0067451126
      3   6  21   3        -0.0067269732
      6   3   3  21        -0.0067269732
      2   5  12  13        -0.0067056705
      5   2  13  12        -0.0067056705
      5   7  18  23         0.0066922896
      7   5  23  18         0.0066922896
      2   5   2   5         0.0066692253
      5   2   5   2         0.0066692253
      2   4   3  21        -0.0066600937
      4   2  21   3        -0.0066600937
      2   7   9  13        -0.0066395249
      7   2  13   9        -0.0066395249
      3   4  14  16        -0.0066340188
      4   3  16  14        -0.0066340188
      3   5   9  18         0.0066065689
      5   3  18   9         0.0066065689
      2   6  13   3        -0.0065876426
      6   2   3  13        -0.0065876426
      3   4   2   7        -0.0065610627
      4   3   7   2        -0.0065610627
      4   4   4  16        -0.0065585614
      4   4  16   4        -0.0065585614
      3   6   3   5        -0.0065436479
      6   3   5   3        -0.0065436479
      2   5   8  18         0.0065429142
      5   2  18   8         0.0065429142
      7   7   0  26        -0.0065213116
      7   7  26   0        -0.0065213116
      3   6  11   1         0.0065118112
      6   3   1  11         0.0065118112
      3   3   9   9        -0.0065089557
      6   6  24  24        -0.0064750931
      4   4  11  19         0.0064683209
      4   4  19  11         0.0064683209
      2   3   0  18        -0.0064644160
      3   2  18   0        -0.0064644160
      3   5  15  12        -0.0064410386
      5   3  12  15        -0.0064410386
      3   6  11   4         0.0064355048
      6   3   4  11         0.0064355048
      3   6  19  16        -0.0064203095
      6   3  16  19        -0.0064203095
      3   3  14  14        -0.0063754394
      5   6  12  24        -0.0063664230
      6   5  24  12        -0.0063664230
      6   6   4  13        -0.0063608201
      6   6  13   4        -0.0063608201
      2   7   3  17        -0.0063568493
      7   2  17   3        -0.0063568493
      3   4  10   7        -0.0063402745
      4   3   7  10        -0.0063402745
      4   5  16  19         0.0063348459
      5   4  19  16         0.0063348459
      4   6  14  11         0.0063209812
      6   4  11  14         0.0063209812
      2   2   1  13        -0.0062896375
      2   2  13   1        -0.0062896375
      2   2   1  12        -0.0062876476
      2   2  12   1        -0.0062876476
      6   6  10  15         0.0062793468
      6   6  15  10         0.0062793468
      5   6   2   7         0.0062756855
      6   5   7   2         0.0062756855
      3   6  18  17        -0.0062709897
      6   3  17  18        -0.0062709897
      2   7   9   4        -0.0062706027
      7   2   4   9        -0.0062706027
      3   6   4  22        -0.0062633588
      6   3  22   4        -0.0062633588
      5   7  18   2         0.0062608178
      7   5   2  18         0.0062608178
      5   6  11   2        -0.0062521036
      6   5   2  11        -0.0062521036
      3   6   7   1        -0.0062316126
      6   3   1   7        -0.0062316126
      3   7   9   5        -0.0062295867
      7   3   5   9        -0.0062295867
      4   7  14  18         0.0062184177
      7   4  18  14         0.0062184177
      3   3  17  17        -0.0062052599
      3   3  10  10        -0.0061973029
      2   6   3  13        -0.0061912914
      6   2  13   3        -0.0061912914
      3   4  17   0        -0.0061894200
      4   3   0  17        -0.0061894200
      4   5  14  10        -0.0061757007
      5   4  10  14        -0.0061757007
      4   5   4  11        -0.0061720992
      5   4  11   4        -0.0061720992
      3   7   9  23        -0.0061713426
      7   3  23   9        -0.0061713426
      4   6  16  10         0.0061646645
      6   4  10  16         0.0061646645
      6   7  24   0        -0.0061469852
      7   6   0  24        -0.0061469852
      2   6   2   7        -0.0061369086
      6   2   7   2        -0.0061369086
      2   5   2   2         0.0061258492
      5   2   2   2         0.0061258492
      4   5   6   2         0.0061202009
      5   4   2   6         0.0061202009
      2   2  17  17        -0.0061044678
      2   5  12  25        -0.0060532764
      5   2  25  12        -0.0060532764
      4   6  21  25         0.0060466978
      6   4  25  21         0.0060466978
      6   7   3   9        -0.0060314903
      7   6   9   3        -0.0060314903
      5   6  25   3        -0.0060250048
      6   5   3  25        -0.0060250048
      5   5   5  21        -0.0060226246
      5   5  21   5        -0.0060226246
      3   3  11  11        -0.0059847092
      2   6  17   0        -0.0059727100
      6   2   0  17        -0.0059727100
      2   5   3  27        -0.0059660190
      5   2  27   3        -0.0059660190
      5   7   9  12        -0.0059460325
      7   5  12   9        -0.0059460325
      2   3   8   0        -0.0059087661
      3   2   0   8        -0.0059087661
      3   4   4  24        -0.0059007338
      4   3  24   4        -0.0059007338
      3   6  15  14        -0.0058870901
      6   3  14  15        -0.0058870901
      2   2   1   1        -0.0058796250
      3   4  18  20         0.0058628645
      4   3  20  18         0.0058628645
      2   3   1   5        -0.0058473594
      3   2   5   1        -0.0058473594
      3   4  12   3        -0.0058450685
      4   3   3  12        -0.0058450685
      2   4  12  19        -0.0058238835
      4   2  19  12        -0.0058238835
      2   2   8   8        -0.0058141224
      5   6  16   3         0.0058126624
      6   5   3  16         0.0058126624
      3   4  19  15        -0.0058049209
      4   3  15  19        -0.0058049209
      3   6  12  22         0.0058037153
      6   3  22  12         0.0058037153
      5   6   2  22         0.0058029340
      6   5  22   2         0.0058029340
      2   3   8   9        -0.0057979590
      3   2   9   8        -0.0057979590
      5   7  21  18        -0.0057960069
      7   5  18  21        -0.0057960069
      2   5   0  26        -0.0057846411
      5   2  26   0        -0.0057846411
      3   4   2  22        -0.0057675403
      4   3  22   2        -0.0057675403
      2   3   4   2        -0.0057648751
      3   2   2   4        -0.0057648751
      4   6  10  16         0.0057633751
      6   4  16  10         0.0057633751
      2   3  17  20         0.0057575236
      3   2  20  17         0.0057575236
      7   7   2   2        -0.0057568822
      7   7   8  18         0.0057558419
      7   7  18   8         0.0057558419
      5   5  21  21        -0.0057402967
      5   6   4  24         0.0057348492
      6   5  24   4         0.0057348492
      3   5  12  23         0.0057109749
      5   3  23  12         0.0057109749
      3   3   7   7        -0.0057010129
      7   7   5   5        -0.0056941408
      3   4   2  11         0.0056766767
      4   3  11   2         0.0056766767
      3   4   3  13        -0.0056707698
      4   3  13   3        -0.0056707698
      4   6  16   2        -0.0056671738
      6   4   2  16        -0.0056671738
      3   5   3  11        -0.0056648186
      5   3  11   3        -0.0056648186
      2   3   3  11         0.0056517868
      3   2  11   3         0.0056517868
      2   3  15   4        -0.0056480244
      3   2   4  15        -0.0056480244
      2   6  12   3        -0.0056438703
      6   2   3  12        -0.0056438703
      5   7   2  18         0.0056276659
      7   5  18   2         0.0056276659
      4   6  24  22        -0.0056265746
      6   4  22  24        -0.0056265746
      3   6  16  19        -0.0056239365
      6   3  19  16        -0.0056239365
      3   3   4  12         0.0056113169
      3   3  12   4         0.0056113169
      2   5   4   4         0.0056104232
      5   2   4   4         0.0056104232
      3   7   9  15        -0.0056039141
      7   3  15   9        -0.0056039141
      4   5  24   2         0.0055992651
      5   4   2  24         0.0055992651
      6   6  10  10        -0.0055977161
      6   7  14   0         0.0055969387
      7   6   0  14         0.0055969387
      3   4  12  14        -0.0055966907
      4   3  14  12        -0.0055966907
      6   6  25  25        -0.0055898134
      2   5   0   0         0.0055882604
      5   2   0   0         0.0055882604
      2   7  12  26        -0.0055850113
      7   2  26  12        -0.0055850113
      2   5   5  10         0.0055788615
      5   2  10   5         0.0055788615
      5   6  16  14         0.0055784805
      6   5  14  16         0.0055784805
      5   7   4   9         0.0055774237
      7   5   9   4         0.0055774237
      2   5   3  14        -0.0055609467
      5   2  14   3        -0.0055609467
      3   3  19  19        -0.0055528753
      3   5   2  16         0.0055517369
      5   3  16   2         0.0055517369
      4   7  17  10         0.0055451186
      7   4  10  17         0.0055451186
      3   6  15  24        -0.0055363662
      6   3  24  15        -0.0055363662
      4   4   1   1        -0.0055216906
      2   7   0  13        -0.0054888803
      7   2  13   0        -0.0054888803
      3   6  10  14         0.0054875027
      6   3  14  10         0.0054875027
      6   7   9   3        -0.0054840072
      7   6   3   9        -0.0054840072
      2   4  12   7        -0.0054739704
      4   2   7  12        -0.0054739704
      4   7  17  23        -0.0054737872
      7   4  23  17        -0.0054737872
      5   5   4  16        -0.0054736374
      5   5  16   4        -0.0054736374
      3   6   3  21        -0.0054692394
      6   3  21   3        -0.0054692394
      3   6  19   4        -0.0054561078
      6   3   4  19        -0.0054561078
      4   5   2  14         0.0054551428
      5   4  14   2         0.0054551428
      5   6  26  17        -0.0054359651
      6   5  17  26        -0.0054359651
      3   3   1   4        -0.0054159265
      3   3   4   1        -0.0054159265
      4   4  10  10        -0.0054041846
      6   6   5   5        -0.0054032652
      2   6   1   3        -0.0053968839
      6   2   3   1        -0.0053968839
      4   6  21   1        -0.0053926427
      6   4   1  21        -0.0053926427
      5   7  25   9        -0.0053867561
      7   5   9  25        -0.0053867561
      3   6   2   3        -0.0053793847
      6   3   3   2        -0.0053793847
      7   7  13  13        -0.0053628707
      3   5  12  10        -0.0053564361
      5   3  10  12        -0.0053564361
      4   6  22  24        -0.0053549829
      6   4  24  22        -0.0053549829
      4   6   2  13        -0.0053447768
      6   4  13   2        -0.0053447768
      4   4   0   0        -0.0053429742
      6   7   0   0        -0.0053368729
      7   6   0   0        -0.0053368729
      4   4  12  12        -0.0053362176
      3   4   9  17        -0.0053266783
      4   3  17   9        -0.0053266783
      4   4  24  24        -0.0053146322
      3   3   0  26         0.0052876963
      3   3  26   0         0.0052876963
      5   6  11  15        -0.0052873291
      6   5  15  11        -0.0052873291
      5   5  16  16        -0.0052836892
      4   6  25  21         0.0052824084
      6   4  21  25         0.0052824084
      2   3   4  15        -0.0052818047
      3   2  15   4        -0.0052818047
      5   5  23  23        -0.0052585082
      3   6  26  20        -0.0052471830
      6   3  20  26        -0.0052471830
      5   6   0  17         0.0052292599
      6   5  17   0         0.0052292599
      5   7  18  10        -0.0052207599
      7   5  10  18        -0.0052207599
      4   4  22  22        -0.0052168774
      3   3   4  13        -0.0052140367
      3   3  13   4        -0.0052140367
      3   6  11  13         0.0052091514
      6   3  13  11         0.0052091514
      5   6   3  12        -0.0052013835
      6   5  12   3        -0.0052013835
      6   7  17  12        -0.0051926182
      7   6  12  17        -0.0051926182
      2   3  13   5        -0.0051843377
      3   2   5  13        -0.0051843377
      4   6   5   1        -0.0051804862
      6   4   1   5        -0.0051804862
      2   7  12  31        -0.0051794857
      7   2  31  12        -0.0051794857
      4   5   3  15         0.0051770491
      5   4  15   3         0.0051770491
      3   3   5  15        -0.0051740881
      3   3  15   5        -0.0051740881
      3   5  16   2         0.0051688847
      5   3   2  16         0.0051688847
      3   4   3   1        -0.0051650404
      4   3   1   3        -0.0051650404
      3   3   5  10        -0.0051524955
      3   3  10   5        -0.0051524955
      3   4   3  16        -0.0051362301
      4   3  16   3        -0.0051362301
      3   4  21  11         0.0051290077
      4   3  11  21         0.0051290077
      2   3  15  16        -0.0051191566
      3   2  16  15        -0.0051191566
      2   2   5   5        -0.0051150050
      4   6   1  21        -0.0051131171
      6   4  21   1        -0.0051131171
      3   5   5   4         0.0051126478
      5   3   4   5         0.0051126478
      3   4  15  19        -0.0051086853
      4   3  19  15        -0.0051086853
      2   2  21  21        -0.0051073418
      4   5  20  26         0.0050983336
      5   4  26  20         0.0050983336
      5   7   0  16         0.0050820354
      7   5  16   0         0.0050820354
      2   5  12  30        -0.0050792844
      5   2  30  12        -0.0050792844
      6   6  12  12        -0.0050777362
      5   6  21  11        -0.0050765572
      6   5  11  21        -0.0050765572
      4   6   1   5        -0.0050687079
      6   4   5   1        -0.0050687079
      3   3  22  22        -0.0050635032
      2   5  25  12        -0.0050608255
      5   2  12  25        -0.0050608255
      2   3  20  17         0.0050569843
      3   2  17  20         0.0050569843
      6   6  13  13        -0.0050486464
      2   3  10  13        -0.0050431993
      3   2  13  10        -0.0050431993
      2   6   2  11         0.0050323843
      6   2  11   2         0.0050323843
      5   5  13  13        -0.0050266512
      4   7  20  12         0.0050263375
      7   4  12  20         0.0050263375
      3   3  24  24        -0.0050234889
      4   5  10  14        -0.0050230503
      5   4  14  10        -0.0050230503
      2   6   9  17        -0.0050114713
      6   2  17   9        -0.0050114713
      5   7  21   8         0.0049979446
      7   5   8  21         0.0049979446
      3   4  11  21         0.0049967804
      4   3  21  11         0.0049967804
      3   6  14  10         0.0049910653
      6   3  10  14         0.0049910653
      2   7  25   0        -0.0049880237
      7   2   0  25        -0.0049880237
      3   5  12  15        -0.0049814299
      5   3  15  12        -0.0049814299
      2   6  14  12        -0.0049703809
      6   2  12  14        -0.0049703809
      4   7  21  17        -0.0049679653
      7   4  17  21        -0.0049679653
      2   4  20   0         0.0049505904
      4   2   0  20         0.0049505904
      3   6  12  19        -0.0049445539
      6   3  19  12        -0.0049445539
      3   4  14   4        -0.0049394250
      4   3   4  14        -0.0049394250
      5   6  15  19         0.0049363960
      6   5  19  15         0.0049363960
      3   5  14  19         0.0049272267
      5   3  19  14         0.0049272267
      3   4  12  24         0.0049105577
      4   3  24  12         0.0049105577
      3   3   6   6        -0.0049069429
      5   5   2   5        -0.0049041467
      5   5   5   2        -0.0049041467
      5   6   2  11        -0.0049038998
      6   5  11   2        -0.0049038998
      2   2   2   2        -0.0048990940
      3   3  21  21        -0.0048908036
      2   7  15   8        -0.0048802338
      7   2   8  15        -0.0048802338
      4   5  11   4        -0.0048728900
      5   4   4  11        -0.0048728900
      2   4  11   1         0.0048718211
      4   2   1  11         0.0048718211
      6   6   2   5        -0.0048666468
      6   6   5   2        -0.0048666468
      2   3   2   1        -0.0048595953
      3   2   1   2        -0.0048595953
      4   5   4  19         0.0048507360
      5   4  19   4         0.0048507360
      3   4  16  14        -0.0048489618
      4   3  14  16        -0.0048489618
      4   5  11  25         0.0048478619
      5   4  25  11         0.0048478619
      6   7   3   0         0.0048375341
      7   6   0   3         0.0048375341
      5   5  12  25        -0.0048333862
      5   5  25  12        -0.0048333862
      5   6  12  14         0.0048285498
      6   5  14  12         0.0048285498
      7   7   4  12        -0.0048285252
      7   7  12   4        -0.0048285252
      3   4  11   5         0.0048240887
      4   3   5  11         0.0048240887
      3   7  10   0        -0.0048213946
      7   3   0  10        -0.0048213946
      2   2   6   6        -0.0048198241
      7   7   2  23        -0.0047939436
      7   7  23   2        -0.0047939436
      7   7   9  26        -0.0047894829
      7   7  26   9        -0.0047894829
      2   5  15  15         0.0047883953
      5   2  15  15         0.0047883953
      2   5  12  35        -0.0047848104
      5   2  35  12        -0.0047848104
      2   3  16  15        -0.0047847343
      3   2  15  16        -0.0047847343
      2   2  23  23        -0.0047827710
      2   7   0  30         0.0047810058
      7   2  30   0         0.0047810058
      3   4  11   2         0.0047753904
      4   3   2  11         0.0047753904
      5   5  24  24        -0.0047606707
      3   4  15  11         0.0047574016
      4   3  11  15         0.0047574016
      3   6   6  10        -0.0047561543
      6   3  10   6        -0.0047561543
      4   4  13  13        -0.0047538023
      2   4   9  20         0.0047378923
      4   2  20   9         0.0047378923
      6   7  12  17        -0.0047309707
      7   6  17  12        -0.0047309707
      2   3   0   8        -0.0047272658
      3   2   8   0        -0.0047272658
      2   7   8  23        -0.0047264316
      7   2  23   8        -0.0047264316
      2   3  10   1        -0.0047083566
      3   2   1  10        -0.0047083566
      6   7  20  23         0.0047026612
      7   6  23  20         0.0047026612
      6   7  20  10        -0.0046992523
      7   6  10  20        -0.0046992523
      2   4   7   1        -0.0046967101
      4   2   1   7        -0.0046967101
      5   7  10  18         0.0046817247
      7   5  18  10         0.0046817247
      3   7   8   1        -0.0046775556
      7   3   1   8        -0.0046775556
      6   7   4  17         0.0046768706
      7   6  17   4         0.0046768706
      5   6  11   5        -0.0046760932
      6   5   5  11        -0.0046760932
      2   3   9   8        -0.0046656262
      3   2   8   9        -0.0046656262
      2   4   6  10        -0.0046614751
      4   2  10   6        -0.0046614751
      5   5  19  19        -0.0046559647
      5   6  10  19        -0.0046555569
      6   5  19  10        -0.0046555569
      3   6  20  26        -0.0046542969
      6   3  26  20        -0.0046542969
      3   4  25   3         0.0046499482
      4   3   3  25         0.0046499482
      1   1  42  42        -0.0046475893
      2   5  13  25        -0.0046458949
      5   2  25  13        -0.0046458949
      3   6   9  20         0.0046444511
      6   3  20   9         0.0046444511
      0   0  42  42        -0.0046441536
      2   3   2  13        -0.0046440489
      3   2  13   2        -0.0046440489
      0   1  42  43        -0.0046409483
      1   0  43  42        -0.0046409483
      0   1  43  42        -0.0046408814
      1   0  42  43        -0.0046408814
      4   5  20   0        -0.0046383989
      5   4   0  20        -0.0046383989
      1   1  43  43        -0.0046383957
      5   5   1  13        -0.0046366584
      5   5  13   1        -0.0046366584
      0   0  43  43        -0.0046350457
      2   3  13   2        -0.0046315199
      3   2   2  13        -0.0046315199
      2   6  11  21         0.0046206734
      6   2  21  11         0.0046206734
      7   7  10  23         0.0046095696
      7   7  23  10         0.0046095696
      5   7  25   0        -0.0046084142
      7   5   0  25        -0.0046084142
      2   5   4  12        -0.0046073268
      5   2  12   4        -0.0046073268
      3   3   3  14        -0.0046056052
      3   3  14   3        -0.0046056052
      2   5  18   8         0.0046012154
      5   2   8  18         0.0046012154
      4   5  22  12        -0.0045989490
      5   4  12  22        -0.0045989490
      2   6   2  22        -0.0045986564
      6   2  22   2        -0.0045986564
      2   4  11  13         0.0045892005
      4   2  13  11         0.0045892005
      3   7   8  13        -0.0045846400
      7   3  13   8        -0.0045846400
      5   6  15  11        -0.0045633020
      6   5  11  15        -0.0045633020
      5   6  19  10        -0.0045629101
      6   5  10  19        -0.0045629101
      7   7   3   3        -0.0045549120
      3   4   6   1        -0.0045452279
      4   3   1   6        -0.0045452279
      4   6  13   2        -0.0045368041
      6   4   2  13        -0.0045368041
      5   7   1   0        -0.0045365801
      7   5   0   1        -0.0045365801
      2   3   6   7        -0.0045246809
      3   2   7   6        -0.0045246809
      4   5  19  16         0.0045239018
      5   4  16  19         0.0045239018
      6   6   3   6        -0.0045220558
      6   6   6   3        -0.0045220558
      2   5   6  14        -0.0045173889
      5   2  14   6        -0.0045173889
      5   6  13   3         0.0045058681
      6   5   3  13         0.0045058681
      6   6   1   4        -0.0044916957
      6   6   4   1        -0.0044916957
      4   6  21  12        -0.0044696450
      6   4  12  21        -0.0044696450
      6   6   1  13        -0.0044655590
      6   6  13   1        -0.0044655590
      6   7   1  17        -0.0044626030
      7   6  17   1        -0.0044626030
      6   6   6  24        -0.0044624288
      6   6  24   6        -0.0044624288
      6   6   3  27         0.0044597321
      6   6  27   3         0.0044597321
      2   5   0  31        -0.0044573839
      5   2  31   0        -0.0044573839
      2   7   0  25        -0.0044568562
      7   2  25   0        -0.0044568562
      3   5  12  21         0.0044471296
      5   3  21  12         0.0044471296
      5   5   2  23         0.0044382853
      5   5  23   2         0.0044382853
      4   6   2  12         0.0044297145
      6   4  12   2         0.0044297145
      3   5   7  14        -0.0044289003
      5   3  14   7        -0.0044289003
      2   7   8   2        -0.0044216348
      7   2   2   8        -0.0044216348
      3   6  24   2        -0.0044168075
      6   3   2  24        -0.0044168075
      2   5  30  12        -0.0044158689
      5   2  12  30        -0.0044158689
      4   4  25  25        -0.0043992139
      2   4  13  19        -0.0043962138
      4   2  19  13        -0.0043962138
      2   7   9  16        -0.0043946474
      7   2  16   9        -0.0043946474
      2   6   4   3        -0.0043861466
      6   2   3   4        -0.0043861466
      6   7  16  17         0.0043798939
      7   6  17  16         0.0043798939
      3   4  22   2        -0.0043622126
      4   3   2  22        -0.0043622126
      2   5  15   5         0.0043553550
      5   2   5  15         0.0043553550
      5   5  10  23         0.0043503929
      5   5  23  10         0.0043503929
      6   7  17   1        -0.0043500984
      7   6   1  17        -0.0043500984
      3   5   1   2         0.0043331803
      5   3   2   1         0.0043331803
[...]
      0   2  12  17        -0.0000003547
      2   0  17  12        -0.0000003547
      1   6  20  37        -0.0000003518
      6   1  37  20        -0.0000003518
      5   5  38  43         0.0000003517
      5   5  43  38         0.0000003517
      1   5  13  20         0.0000003512
      5   1  20  13         0.0000003512
      1   4  40  28        -0.0000003490
      4   1  28  40        -0.0000003490
      1   6  32   3        -0.0000003484
      6   1   3  32        -0.0000003484
      0   2   3  26        -0.0000003478
      2   0  26   3        -0.0000003478
      1   4   9  43         0.0000003463
      4   1  43   9         0.0000003463
      5   7  19  42        -0.0000003455
      7   5  42  19        -0.0000003455
      0   3  20   4         0.0000003443
      3   0   4  20         0.0000003443
      0   1  17  23         0.0000003396
      1   0  23  17         0.0000003396
      4   5  42   9        -0.0000003352
      5   4   9  42        -0.0000003352
      1   5   8   6         0.0000003330
      5   1   6   8         0.0000003330
      1   1  19  28         0.0000003317
      1   1  28  19         0.0000003317
      1   7   2   6        -0.0000003298
      7   1   6   2        -0.0000003298
      2   7  37  43        -0.0000003271
      7   2  43  37        -0.0000003271
      1   7  22  43        -0.0000003262
      7   1  43  22        -0.0000003262
      0   5  10  20         0.0000003248
      5   0  20  10         0.0000003248
      6   7  20  32        -0.0000003237
      7   6  32  20        -0.0000003237
      0   6  26  35         0.0000003235
      6   0  35  26         0.0000003235
      3   6  26  40        -0.0000003191
      6   3  40  26        -0.0000003191
      0   2  20  10         0.0000003159
      2   0  10  20         0.0000003159
      1   2  20   1         0.0000003155
      2   1   1  20         0.0000003155
      1   3  20  15        -0.0000003138
      3   1  15  20        -0.0000003138
      1   3  19  34         0.0000003122
      3   1  34  19         0.0000003122
      0   1  20  35         0.0000003111
      1   0  35  20         0.0000003111
      0   6  38   9        -0.0000003076
      6   0   9  38        -0.0000003076
      0   1  23  17         0.0000003052
      1   0  17  23         0.0000003052
      2   6  42   8         0.0000003051
      6   2   8  42         0.0000003051
      0   0  19  28         0.0000003048
      0   0  28  19         0.0000003048
      1   2   8  14        -0.0000003048
      2   1  14   8        -0.0000003048
      0   7  42   7        -0.0000003032
      7   0   7  42        -0.0000003032
      1   6  42  26        -0.0000003013
      6   1  26  42        -0.0000003013
      0   7  34   2         0.0000003012
      7   0   2  34         0.0000003012
      0   7  22  42        -0.0000003009
      7   0  42  22        -0.0000003009
      1   4  28  42         0.0000003008
      4   1  42  28         0.0000003008
      2   7  43  24         0.0000003004
      7   2  24  43         0.0000003004
      0   4  32  24         0.0000002987
      4   0  24  32         0.0000002987
      0   5  13  17        -0.0000002983
      5   0  17  13        -0.0000002983
      0   7  43  27        -0.0000002961
      7   0  27  43        -0.0000002961
      1   3  13  29        -0.0000002926
      3   1  29  13        -0.0000002926
      0   4  38  28         0.0000002877
      4   0  28  38         0.0000002877
      1   5  22  26         0.0000002867
      5   1  26  22         0.0000002867
      0   4  29  28         0.0000002854
      4   0  28  29         0.0000002854
      0   4  28  43         0.0000002850
      4   0  43  28         0.0000002850
      2   7  22  42        -0.0000002816
      7   2  42  22        -0.0000002816
      0   6  17  24         0.0000002810
      6   0  24  17         0.0000002810
      0   3  34  14        -0.0000002787
      3   0  14  34        -0.0000002787
      0   4   1  28        -0.0000002783
      4   0  28   1        -0.0000002783
      0   2   4  17        -0.0000002781
      2   0  17   4        -0.0000002781
      0   5  17  13         0.0000002773
      5   0  13  17         0.0000002773
      3   4  42  28         0.0000002772
      4   3  28  42         0.0000002772
      0   4  23  26         0.0000002768
      4   0  26  23         0.0000002768
      0   5   1  17         0.0000002758
      5   0  17   1         0.0000002758
      1   4  43  26        -0.0000002746
      4   1  26  43        -0.0000002746
      1   4  43   6         0.0000002690
      4   1   6  43         0.0000002690
      0   3  24   8        -0.0000002685
      3   0   8  24        -0.0000002685
      0   5  42  33        -0.0000002683
      5   0  33  42        -0.0000002683
      0   6  42  18        -0.0000002681
      6   0  18  42        -0.0000002681
      0   6  42   8        -0.0000002615
      6   0   8  42        -0.0000002615
      0   3   0  22         0.0000002539
      3   0  22   0         0.0000002539
      0   5  32  23         0.0000002534
      5   0  23  32         0.0000002534
      1   6  42   9         0.0000002529
      6   1   9  42         0.0000002529
      6   7  43   1         0.0000002522
      7   6   1  43         0.0000002522
      0   4  28  12         0.0000002521
      4   0  12  28         0.0000002521
      4   7  15  43        -0.0000002495
      7   4  43  15        -0.0000002495
      1   7  43  34         0.0000002477
      7   1  34  43         0.0000002477
      0   7  22  15        -0.0000002474
      7   0  15  22        -0.0000002474
      0   6  43   6        -0.0000002468
      6   0   6  43        -0.0000002468
      2   3  26   7        -0.0000002446
      3   2   7  26        -0.0000002446
      0   7  43   3         0.0000002424
      7   0   3  43         0.0000002424
      4   5  43  18         0.0000002413
      5   4  18  43         0.0000002413
      1   3   4  29         0.0000002389
      3   1  29   4         0.0000002389
      4   6  42  17         0.0000002386
      6   4  17  42         0.0000002386
      0   2  22  28         0.0000002369
      2   0  28  22         0.0000002369
      4   6  43  32        -0.0000002357
      6   4  32  43        -0.0000002357
      5   6   9  43        -0.0000002348
      6   5  43   9        -0.0000002348
      2   7  43   6        -0.0000002344
      7   2   6  43        -0.0000002344
      4   4   5  15        -0.0000002291
      4   4  15   5        -0.0000002291
      1   3   5  20         0.0000002280
      3   1  20   5         0.0000002280
      0   5  17   4         0.0000002259
      5   0   4  17         0.0000002259
      1   5  28   6         0.0000002256
      5   1   6  28         0.0000002256
      1   7  43   7        -0.0000002229
      7   1   7  43        -0.0000002229
      1   4  13   0         0.0000002228
      4   1   0  13         0.0000002228
      0   3  17   2         0.0000002227
      3   0   2  17         0.0000002227
      0   7  10  22         0.0000002213
      7   0  22  10         0.0000002213
      2   7  14  43        -0.0000002210
      7   2  43  14        -0.0000002210
      0   5  17  38         0.0000002189
      5   0  38  17         0.0000002189
      0   6  43  27         0.0000002185
      6   0  27  43         0.0000002185
      0   0  17  17        -0.0000002169
      1   4  18   2        -0.0000002164
      4   1   2  18        -0.0000002164
      6   7   2  42         0.0000002109
      7   6  42   2         0.0000002109
      2   7  42  39        -0.0000002087
      7   2  39  42        -0.0000002087
      0   6  42  28        -0.0000002079
      6   0  28  42        -0.0000002079
      0   3  18  14        -0.0000002075
      3   0  14  18        -0.0000002075
      2   4  28  16        -0.0000002073
      4   2  16  28        -0.0000002073
      0   1  35  20         0.0000002027
      1   0  20  35         0.0000002027
      1   5  43  20        -0.0000002026
      5   1  20  43        -0.0000002026
      1   3  17  12         0.0000002007
      3   1  12  17         0.0000002007
      2   7  28  33        -0.0000001977
      7   2  33  28        -0.0000001977
      0   4  17  34        -0.0000001963
      4   0  34  17        -0.0000001963
      2   2  17  43        -0.0000001929
      2   2  43  17        -0.0000001929
      1   4  42  11         0.0000001909
      4   1  11  42         0.0000001909
      1   4  36  28        -0.0000001904
      4   1  28  36        -0.0000001904
      2   4  43  28         0.0000001900
      4   2  28  43         0.0000001900
      1   7  42  27        -0.0000001889
      7   1  27  42        -0.0000001889
      0   5  41  17        -0.0000001883
      5   0  17  41        -0.0000001883
      0   4  22  17         0.0000001882
      4   0  17  22         0.0000001882
      1   4  23  18        -0.0000001881
      4   1  18  23        -0.0000001881
      4   5  43   8         0.0000001861
      5   4   8  43         0.0000001861
      0   5  17  16        -0.0000001849
      5   0  16  17        -0.0000001849
      1   4  41   9        -0.0000001841
      4   1   9  41        -0.0000001841
      1   4  43  31        -0.0000001838
      4   1  31  43        -0.0000001838
      0   7  42  22        -0.0000001817
      7   0  22  42        -0.0000001817
      0   4  42  26        -0.0000001807
      4   0  26  42        -0.0000001807
      0   2  20  36         0.0000001788
      2   0  36  20         0.0000001788
      0   2  11  28         0.0000001775
      2   0  28  11         0.0000001775
      3   4  26  43        -0.0000001773
      4   3  43  26        -0.0000001773
      4   5  42   0         0.0000001764
      5   4   0  42         0.0000001764
      0   7  21  39        -0.0000001758
      7   0  39  21        -0.0000001758
      0   1  29  15        -0.0000001756
      1   0  15  29        -0.0000001756
      3   5  17  42         0.0000001740
      5   3  42  17         0.0000001740
      1   4  28   2        -0.0000001701
      4   1   2  28        -0.0000001701
      1   7  43   8         0.0000001690
      7   1   8  43         0.0000001690
      0   7  27  35         0.0000001679
      7   0  35  27         0.0000001679
      4   7  43  23        -0.0000001672
      7   4  23  43        -0.0000001672
      1   7  42   6        -0.0000001651
      7   1   6  42        -0.0000001651
      0   7  43  24         0.0000001639
      7   0  24  43         0.0000001639
      1   5  42  17         0.0000001624
      5   1  17  42         0.0000001624
      3   6  43   8        -0.0000001614
      6   3   8  43        -0.0000001614
      0   1  22   0        -0.0000001609
      1   0   0  22        -0.0000001609
      4   6  17  42         0.0000001588
      6   4  42  17         0.0000001588
      1   4  17   6        -0.0000001586
      4   1   6  17        -0.0000001586
      2   3  43  20        -0.0000001570
      3   2  20  43        -0.0000001570
      0   3  20  13        -0.0000001558
      3   0  13  20        -0.0000001558
      0   4   2   9         0.0000001463
      4   0   9   2         0.0000001463
      4   7  41  42         0.0000001448
      7   4  42  41         0.0000001448
      1   7  31   2         0.0000001445
      7   1   2  31         0.0000001445
      1   7  23  14        -0.0000001400
      7   1  14  23        -0.0000001400
      4   5  43  28         0.0000001391
      5   4  28  43         0.0000001391
      1   7  21   0         0.0000001376
      7   1   0  21         0.0000001376
      1   7  30  22         0.0000001343
      7   1  22  30         0.0000001343
      1   3  20  21         0.0000001323
      3   1  21  20         0.0000001323
      6   7  42   2         0.0000001296
      7   6   2  42         0.0000001296
      1   4   1   9         0.0000001290
      4   1   9   1         0.0000001290
      1   2  17   5         0.0000001259
      2   1   5  17         0.0000001259
      0   3  33  30         0.0000001219
      3   0  30  33         0.0000001219
      1   7  43  22         0.0000001218
      7   1  22  43         0.0000001218
      0   4  42   0        -0.0000001175
      4   0   0  42        -0.0000001175
      0   2   9  37        -0.0000001155
      2   0  37   9        -0.0000001155
      1   4  20  34         0.0000001149
      4   1  34  20         0.0000001149
      2   4  14   5         0.0000001044
      4   2   5  14         0.0000001044
      2   6  14  43         0.0000001041
      6   2  43  14         0.0000001041
      0   5  43  17         0.0000001036
      5   0  17  43         0.0000001036
      0   6  20  39         0.0000000994
      6   0  39  20         0.0000000994
      0   3  31  22         0.0000000923
      3   0  22  31         0.0000000923
      1   3  19  18        -0.0000000910
      3   1  18  19        -0.0000000910
      1   4  42   8        -0.0000000887
      4   1   8  42        -0.0000000887
      0   6  43  26         0.0000000886
      6   0  26  43         0.0000000886
      0   2   2  20         0.0000000863
      2   0  20   2         0.0000000863
      2   5  22  28        -0.0000000820
      5   2  28  22        -0.0000000820
      3   5  43  32        -0.0000000802
      5   3  32  43        -0.0000000802
      5   7  23  19         0.0000000795
      7   5  19  23         0.0000000795
      3   6  43  28        -0.0000000794
      6   3  28  43        -0.0000000794
      5   7  42  11        -0.0000000793
      7   5  11  42        -0.0000000793
      0   2   0  14         0.0000000774
      2   0  14   0         0.0000000774
      0   6  43  31         0.0000000764
      6   0  31  43         0.0000000764
      0   7  42  39        -0.0000000758
      7   0  39  42        -0.0000000758
      5   7  42  22        -0.0000000742
      7   5  22  42        -0.0000000742
      1   5  21  17         0.0000000707
      5   1  17  21         0.0000000707
      1   5  17  36        -0.0000000699
      5   1  36  17        -0.0000000699
      2   3  17  42         0.0000000691
      3   2  42  17         0.0000000691
      0   6  43   9         0.0000000687
      6   0   9  43         0.0000000687
      4   7  23  43         0.0000000686
      7   4  43  23         0.0000000686
      0   2  34  22        -0.0000000631
      2   0  22  34        -0.0000000631
      5   7  40  39         0.0000000631
      7   5  39  40         0.0000000631
      4   5  26  36        -0.0000000626
      5   4  36  26        -0.0000000626
      3   7  38  22         0.0000000615
      7   3  22  38         0.0000000615
      2   4  42   9         0.0000000585
      4   2   9  42         0.0000000585
      1   7  15  27         0.0000000552
      7   1  27  15         0.0000000552
      3   5  42  17         0.0000000543
      5   3  17  42         0.0000000543
      0   7  33  34         0.0000000537
      7   0  34  33         0.0000000537
      0   1   0  22        -0.0000000534
      1   0  22   0        -0.0000000534
      0   5  17   1         0.0000000533
      5   0   1  17         0.0000000533
      1   5  20  25        -0.0000000524
      5   1  25  20        -0.0000000524
      0   6  39  15         0.0000000523
      6   0  15  39         0.0000000523
      4   5  26  40         0.0000000499
      5   4  40  26         0.0000000499
      1   7  23   3        -0.0000000485
      7   1   3  23        -0.0000000485
      0   6  34  20         0.0000000473
      6   0  20  34         0.0000000473
      1   1  17  17        -0.0000000461
      0   5  34  18         0.0000000461
      5   0  18  34         0.0000000461
      0   4  42   9         0.0000000453
      4   0   9  42         0.0000000453
      2   6  43  26        -0.0000000442
      6   2  26  43        -0.0000000442
      0   5  42  20        -0.0000000434
      5   0  20  42        -0.0000000434
      1   5  10  17        -0.0000000423
      5   1  17  10        -0.0000000423
      4   7  43  21        -0.0000000419
      7   4  21  43        -0.0000000419
      1   4  43   9        -0.0000000412
      4   1   9  43        -0.0000000412
      0   3   1  20        -0.0000000407
      3   0  20   1        -0.0000000407
      6   7  34  39         0.0000000398
      7   6  39  34         0.0000000398
      0   4  38  18        -0.0000000394
      4   0  18  38        -0.0000000394
      0   3  31  34         0.0000000383
      3   0  34  31         0.0000000383
      1   4  23  28        -0.0000000375
      4   1  28  23        -0.0000000375
      4   6  20  43         0.0000000370
      6   4  43  20         0.0000000370
      1   4  10  28        -0.0000000369
      4   1  28  10        -0.0000000369
      4   5  28  43        -0.0000000364
      5   4  43  28        -0.0000000364
      1   4  42  18        -0.0000000356
      4   1  18  42        -0.0000000356
      0   6  20  19        -0.0000000354
      6   0  19  20        -0.0000000354
      1   4   4  26         0.0000000340
      4   1  26   4         0.0000000340
      0   0  20  20        -0.0000000337
      1   7  21  27         0.0000000328
      7   1  27  21         0.0000000328
      0   2  10  32         0.0000000312
      2   0  32  10         0.0000000312
      0   4  43   8        -0.0000000309
      4   0   8  43        -0.0000000309
      2   7  43  14        -0.0000000300
      7   2  14  43        -0.0000000300
      0   3   0  39        -0.0000000277
      3   0  39   0        -0.0000000277
      1   4  32  39        -0.0000000239
      4   1  39  32        -0.0000000239
      6   6  20  42        -0.0000000238
      6   6  42  20        -0.0000000238
      3   4  28  42         0.0000000230
      4   3  42  28         0.0000000230
      0   7  43  14         0.0000000229
      7   0  14  43         0.0000000229
      0   4  43  18         0.0000000227
      4   0  18  43         0.0000000227
      1   4  17  37         0.0000000212
      4   1  37  17         0.0000000212
      1   4   2   8         0.0000000208
      4   1   8   2         0.0000000208
      2   7  22  40         0.0000000207
      7   2  40  22         0.0000000207
      3   7   7  43        -0.0000000192
      7   3  43   7        -0.0000000192
      1   5  23  29         0.0000000191
      5   1  29  23         0.0000000191
      6   7   1  43        -0.0000000161
      7   6  43   1        -0.0000000161
      0   4  43  28         0.0000000161
      4   0  28  43         0.0000000161
      1   2  22  31        -0.0000000145
      2   1  31  22        -0.0000000145
      4   5   0  42        -0.0000000126
      5   4  42   0        -0.0000000126
      2   4  42  26        -0.0000000118
      4   2  26  42        -0.0000000118
      1   5  17  10         0.0000000102
      5   1  10  17         0.0000000102
      0   7  43   6        -0.0000000101
      7   0   6  43        -0.0000000101

    SCF energy       (wfn)                    =  -78.048474268288402
    Reference energy (file100)                =  -78.048474268288260

    Opposite-spin MP2 correlation energy      =   -0.243445353481824
    Same-spin MP2 correlation energy          =   -0.060211692520285
    MP2 correlation energy                    =   -0.303657046002110
      * MP2 total energy                      =  -78.352131314290375

    Opposite-spin CCSD correlation energy     =   -0.279648294546795
    Same-spin CCSD correlation energy         =   -0.054870334137629
    CCSD correlation energy                   =   -0.334518628684424
      * CCSD total energy                     =  -78.382992896972681


*** tstop() called on Berts-MacBook-Pro.local at Wed Dec  6 21:22:25 2017
Module time:
	user time   =     148.31 seconds =       2.47 minutes
	system time =       2.09 seconds =       0.03 minutes
	total time  =        151 seconds =       2.52 minutes
Total time:
	user time   =     203.47 seconds =       3.39 minutes
	system time =       3.27 seconds =       0.05 minutes
	total time  =        207 seconds =       3.45 minutes

*** Psi4 exiting successfully. Buy a developer a beer!
