
    -----------------------------------------------------------------------
          Psi4: An Open-Source Ab Initio Electronic Structure Package
                               Psi4 1.1 release

                         Git: Rev {HEAD} add49b9 


    R. M. Parrish, L. A. Burns, D. G. A. Smith, A. C. Simmonett,
    A. E. DePrince III, E. G. Hohenstein, U. Bozkaya, A. Yu. Sokolov,
    R. Di Remigio, R. M. Richard, J. F. Gonthier, A. M. James,
    H. R. McAlexander, A. Kumar, M. Saitow, X. Wang, B. P. Pritchard,
    P. Verma, H. F. Schaefer III, K. Patkowski, R. A. King, E. F. Valeev,
    F. A. Evangelista, J. M. Turney, T. D. Crawford, and C. D. Sherrill,
    J. Chem. Theory Comput. in press (2017).
    (doi: 10.1021/acs.jctc.7b00174)

    -----------------------------------------------------------------------


    Psi4 started on: Wednesday, 06 December 2017 10:59PM

    Process ID:  12170
    PSIDATADIR: /anaconda3/share/psi4
    Memory:     500.0 MiB
    Threads:    1
    
  ==> Input File <==

--------------------------------------------------------------------------
"""This is a template for psi4 input format."""
import numpy
import sys

from openfermion.config import *
from openfermion.ops._interaction_tensor import (one_body_basis_change,
                                              two_body_basis_change)
from openfermion.hamiltonians import MolecularData
from numpy import array

sys.path.append('/Users/wadejong/Desktop/Quantum-Computing/OpenFermion/OpenFermion-Psi4/openfermionpsi4')
from _psi4_conversion_functions import *

# Set number of threads in PSI4
set_num_threads(8)

# Set memory that job can use in megabytes.
memory 8000 mb

# Initialize molecular data.
_description = 'ethylene_2.27765'
if _description == 'None':
    _description = None
molecule = MolecularData([['C', array([ 0.      ,  0.      ,  0.673055])], ['C', array([ 0.      ,  0.      , -0.673055])], ['H', array([ 0.      ,  0.934981,  1.246807])], ['H', array([ 0.      , -0.934981,  1.246807])], ['H', array([ 0.71096513,  0.60722159, -1.246807  ])], ['H', array([-0.71096513, -0.60722159, -1.246807  ])]],
                         'DZP',
                         1,
                         0,
                         _description,
                          filename='/Users/wadejong/Desktop/QCQCSiddiqi/8_Qubit_Simulation/data/H4-C2_DZP_singlet_ethylene_2.27765')

# Set molecular geometry and symmetry.
molecule mol {
C 0.0 0.0 0.673055
C 0.0 0.0 -0.673055
H 0.0 0.934981 1.246807
H 0.0 -0.934981 1.246807
H 0.7109651301226826 0.6072215856758033 -1.246807
H -0.7109651301226826 -0.6072215856758033 -1.246807
symmetry c1
}
mol.set_multiplicity(1)
mol.set_molecular_charge(0)

# Set reference and guess.
if molecule.multiplicity == 1:
    set reference rhf
    set guess sad
    set sad_frac_occ true
else:
    set reference rohf
    set guess sad
    set sad_frac_occ true

# Set global parameters of calculation.
set globals {
    basis DZP
    freeze_core false
    fail_on_maxiter true
    df_scf_guess false
    guess sad
    sad_frac_occ true
    opdm false
    tpdm false
    soscf true
    scf_type pk
    diis true
    maxiter 1e6
    num_amps_print 1e6
    r_convergence 1e-7
    d_convergence 1e-7
    e_convergence 1e-7
    ints_tolerance EQUALITY_TOLERANCE
    damping_percentage 0
}

# Run self-consistent field (SCF) calculation.
if True:
    try:

        hf_energy, hf_wavefunction = energy('scf', return_wfn=True)
        scf_wfn = hf_wavefunction
        if True:
            print('Hartree-Fock energy for {} ({} electrons) is {}.'.format(
                molecule.name, molecule.n_electrons, hf_energy))
    except:
        if True:
            print('WARNING: SCF calculation failed.')
        else:
            raise
    else:
        # Get orbitals and Fock matrix.
        molecule.hf_energy = hf_energy
        molecule.nuclear_repulsion = mol.nuclear_repulsion_energy()
        molecule.canonical_orbitals = numpy.asarray(hf_wavefunction.Ca())
        molecule.n_orbitals = molecule.canonical_orbitals.shape[0]
        molecule.n_qubits = 2 * molecule.n_orbitals
        molecule.orbital_energies = numpy.asarray(hf_wavefunction.epsilon_a())
        molecule.fock_matrix = numpy.asarray(hf_wavefunction.Fa())

        # Get integrals using MintsHelper.
        mints = MintsHelper(hf_wavefunction.basisset())
        molecule.one_body_integrals = one_body_basis_change(
            numpy.asarray(mints.ao_kinetic()), molecule.canonical_orbitals)
        molecule.one_body_integrals += one_body_basis_change(
            numpy.asarray(mints.ao_potential()), molecule.canonical_orbitals)
        two_body_integrals = numpy.asarray(mints.ao_eri())
        two_body_integrals.reshape((molecule.n_orbitals, molecule.n_orbitals,
                                    molecule.n_orbitals, molecule.n_orbitals))
        two_body_integrals = numpy.einsum('psqr', two_body_integrals)
        two_body_integrals = two_body_basis_change(
            two_body_integrals, molecule.canonical_orbitals)
        molecule.two_body_integrals = two_body_integrals
        molecule.save()


# Perform MP2 energy calculation if there are at least two electrons.
if True:
    try:
        assert molecule.n_electrons > 1
        mp2_energy = energy('mp2',ref_wfn=scf_wfn)
        if True:
            print('MP2 energy for {} ({} electrons) is {}.'.format(
                molecule.name, molecule.n_electrons, mp2_energy))
    except:
        if True:
            print('WARNING: MP2 calculation failed.')
        else:
            raise
    else:
        molecule.mp2_energy = mp2_energy
        molecule.save()


# Perform configuration interaction singles and doubles (CISD) calculation.
if True:
    set qc_module detci
    try:
        cisd_energy, cisd_wavefunction = energy('cisd', ref_wfn=scf_wfn, return_wfn=True)
        if True:
            print('CISD energy for {} ({} electrons) is {}.'.format(
                molecule.name, molecule.n_electrons, cisd_energy))
    except:
        if True:
            print('WARNING: CISD calculation failed.')
        else:
            raise
    else:
        # For the functions below, "a" and "b" refer to "up and "down" spins.
        molecule.cisd_energy = cisd_energy

        # Get 1-RDM from CISD calculation.
        """cisd_one_rdm_a = numpy.array(cisd_wavefunction.get_opdm(
            0, 0, 'A', True)).reshape(molecule.n_orbitals, molecule.n_orbitals)
        cisd_one_rdm_b = numpy.array(cisd_wavefunction.get_opdm(
            0, 0, 'B', True)).reshape(molecule.n_orbitals, molecule.n_orbitals)

        # Get 2-RDM from CISD calculation.
        cisd_two_rdm_aa = numpy.array(cisd_wavefunction.get_tpdm(
            'AA', False)).reshape(molecule.n_orbitals, molecule.n_orbitals,
                                  molecule.n_orbitals, molecule.n_orbitals)
        cisd_two_rdm_ab = numpy.array(cisd_wavefunction.get_tpdm(
            'AB', False)).reshape(molecule.n_orbitals, molecule.n_orbitals,
                                  molecule.n_orbitals, molecule.n_orbitals)
        cisd_two_rdm_bb = numpy.array(cisd_wavefunction.get_tpdm(
            'BB', False)).reshape(molecule.n_orbitals, molecule.n_orbitals,
                                  molecule.n_orbitals, molecule.n_orbitals)

        # Get overall RDMs.
        cisd_one_rdm, cisd_two_rdm = unpack_spatial_rdm(
            cisd_one_rdm_a, cisd_one_rdm_b, cisd_two_rdm_aa,
            cisd_two_rdm_ab, cisd_two_rdm_bb)

        # Store 1-RDM in molecule file, 2-RDM separately in other file.
        molecule.cisd_one_rdm = cisd_one_rdm
        molecule.cisd_two_rdm = cisd_two_rdm
        molecule.save()"""


# Perform exact diagonalization.
if False:
    set qc_module detci
    try:
        fci_energy, fci_wavefunction = energy('fci', ref_wfn=scf_wfn, return_wfn=True)
        if True:
            print('FCI energy for {} ({} electrons) is {}.'.format(
                molecule.name, molecule.n_electrons, fci_energy))
    except:
        if True:
            print('WARNING: FCI calculation failed.')
        else:
            raise
    else:
        # For the functions below, "a" and "b" refer to "up and "down" spins.
        molecule.fci_energy = fci_energy

        # Get 1-RDM from FCI calculation.
        """fci_one_rdm_a = numpy.array(fci_wavefunction.get_opdm(
            0, 0, 'A', True)).reshape(molecule.n_orbitals, molecule.n_orbitals)
        fci_one_rdm_b = numpy.array(fci_wavefunction.get_opdm(
            0, 0, 'B', True)).reshape(molecule.n_orbitals, molecule.n_orbitals)

        # Get 2-RDM from FCI calculation.
        fci_two_rdm_aa = numpy.array(fci_wavefunction.get_tpdm(
            'AA', False)).reshape(molecule.n_orbitals, molecule.n_orbitals,
                                  molecule.n_orbitals, molecule.n_orbitals)
        fci_two_rdm_ab = numpy.array(fci_wavefunction.get_tpdm(
            'AB', False)).reshape(molecule.n_orbitals, molecule.n_orbitals,
                                  molecule.n_orbitals, molecule.n_orbitals)
        fci_two_rdm_bb = numpy.array(fci_wavefunction.get_tpdm(
            'BB', False)).reshape(molecule.n_orbitals, molecule.n_orbitals,
                                  molecule.n_orbitals, molecule.n_orbitals)

        # Get overall RDMs.
        fci_one_rdm, fci_two_rdm = unpack_spatial_rdm(
            fci_one_rdm_a, fci_one_rdm_b,
            fci_two_rdm_aa, fci_two_rdm_ab, fci_two_rdm_bb)

        # Store 1-RDM in molecule file, 2-RDM separately in other file.
        molecule.fci_one_rdm = fci_one_rdm
        molecule.fci_two_rdm = fci_two_rdm
        molecule.save()"""


# Perform coupled cluster singles and doubles (CCSD) calculation.
if True:
    set qc_module ccenergy
    try:
        ccsd_energy = energy('ccsd',ref_wfn=scf_wfn)
        if True:
            print('CCSD energy for {} ({} electrons) is {}.'.format(
                molecule.name, molecule.n_electrons, ccsd_energy))
    except:
        if True:
            print('WARNING: CCSD calculation failed.')
        else:
            raise
    else:
        molecule.ccsd_energy = ccsd_energy

        # Merge CC amplitudes into molecule by parsing
        psi_filename = outfile_name()
        ccsd_amplitudes = parse_psi4_ccsd_amplitudes(
            2 * molecule.n_orbitals,
            molecule.get_n_alpha_electrons(),
            molecule.get_n_beta_electrons(),
            psi_filename)
        molecule.ccsd_amplitudes = ccsd_amplitudes
        molecule.save()
--------------------------------------------------------------------------
  Python driver attempted to set threads to 8.
  Psi4 was compiled without OpenMP, setting threads to 1.

  Memory set to   7.451 GiB by Python driver.

*** tstart() called on Berts-MacBook-Pro.local
*** at Wed Dec  6 22:59:40 2017

   => Loading Basis Set <=

    Name: DZP
    Role: ORBITAL
    Keyword: BASIS
    atoms 1-2 entry C          line    73 file /anaconda3/share/psi4/basis/dzp.gbs 
    atoms 3-6 entry H          line    16 file /anaconda3/share/psi4/basis/dzp.gbs 


         ---------------------------------------------------------
                                   SCF
            by Justin Turney, Rob Parrish, and Andy Simmonett
                              RHF Reference
                        1 Threads,   7629 MiB Core
         ---------------------------------------------------------

  ==> Geometry <==

    Molecular point group: c1
    Full point group: D2

    Geometry (in Angstrom), charge = 0, multiplicity = 1:

       Center              X                  Y                   Z               Mass       
    ------------   -----------------  -----------------  -----------------  -----------------
           C          0.000000000000     0.000000000000     0.673055000000    12.000000000000
           C          0.000000000000     0.000000000000    -0.673055000000    12.000000000000
           H         -0.391438900062     0.849096612806     1.246807000000     1.007825032070
           H          0.391438900062    -0.849096612806     1.246807000000     1.007825032070
           H          0.391438900062     0.849096612806    -1.246807000000     1.007825032070
           H         -0.391438900062    -0.849096612806    -1.246807000000     1.007825032070

  Running in c1 symmetry.

  Rotational constants: A =      4.78350  B =      0.94938  C =      0.84098 [cm^-1]
  Rotational constants: A = 143405.72603  B =  28461.57942  C =  25211.88690 [MHz]
  Nuclear repulsion =   32.998683080400312

  Charge       = 0
  Multiplicity = 1
  Electrons    = 16
  Nalpha       = 8
  Nbeta        = 8

  ==> Algorithm <==

  SCF Algorithm Type is PK.
  DIIS enabled.
  MOM disabled.
  Fractional occupation disabled.
  Guess Type is SAD.
  Energy threshold   = 1.00e-07
  Density threshold  = 1.00e-07
  Integral threshold = 0.00e+00

  ==> Primary Basis <==

  Basis Set: DZP
    Blend: DZP
    Number of shells: 26
    Number of basis function: 52
    Number of Cartesian functions: 52
    Spherical Harmonics?: false
    Max angular momentum: 2

  ==> Pre-Iterations <==

   -------------------------------------------------------
    Irrep   Nso     Nmo     Nalpha   Nbeta   Ndocc  Nsocc
   -------------------------------------------------------
     A         52      52       0       0       0       0
   -------------------------------------------------------
    Total      52      52       8       8       8       0
   -------------------------------------------------------

  ==> Integral Setup <==

  Using in-core PK algorithm.
   Calculation information:
      Number of atoms:                   6
      Number of AO shells:              26
      Number of primitives:             50
      Number of atomic orbitals:        52
      Number of basis functions:        52

      Integral cutoff                 1.00e-12
      Number of threads:                 1

  Performing in-core PK
  Using 1900262 doubles for integral storage.
  We computed 61765 shell quartets total.
  Whereas there are 61776 unique shell quartets.
  ==> DiskJK: Disk-Based J/K Matrices <==

    J tasked:                  Yes
    K tasked:                  Yes
    wK tasked:                  No
    Memory (MB):              5722
    Schwarz Cutoff:          1E-12

    OpenMP threads:              1
  Minimum eigenvalue in the overlap matrix is 9.0949554465E-03.
  Using Symmetric Orthogonalization.

  SCF Guess: Superposition of Atomic Densities via on-the-fly atomic UHF.

  ==> Iterations <==

                        Total Energy        Delta E     RMS |[F,P]|

   @RHF iter   0:   -69.16311680045413   -6.91631e+01   1.01493e-01 
   @RHF iter   1:   -74.25855279465689   -5.09544e+00   4.00689e-02 
   @RHF iter   2:   -77.13246241042256   -2.87391e+00   2.42877e-02 DIIS/DAMP
   @RHF iter   3:   -77.98366120108871   -8.51199e-01   2.40876e-03 DIIS/DAMP
   @RHF iter   4:   -77.99522129230994   -1.15601e-02   4.13410e-04 SOSCF, nmicro = 4/DAMP
   @RHF iter   5:   -77.99581316715160   -5.91875e-04   2.14496e-06 SOSCF, nmicro = 4/DAMP
   @RHF iter   6:   -77.99581317845008   -1.12985e-08   1.82609e-09 SOSCF, conv/DAMP

  ==> Post-Iterations <==

    Orbital Energies (a.u.)
    -----------------------

    Doubly Occupied:                                                      

       1A    -11.246824     2A    -11.245295     3A     -1.028770  
       4A     -0.789197     5A     -0.624000     6A     -0.583957  
       7A     -0.539567     8A     -0.324947  

    Virtual:                                                              

       9A      0.107981    10A      0.257377    11A      0.308735  
      12A      0.349703    13A      0.387123    14A      0.412512  
      15A      0.448893    16A      0.465852    17A      0.478563  
      18A      0.577811    19A      0.599416    20A      0.679223  
      21A      0.820001    22A      1.012647    23A      1.212123  
      24A      1.235463    25A      1.304739    26A      1.434714  
      27A      1.583524    28A      1.602775    29A      1.699092  
      30A      1.961130    31A      2.018511    32A      2.075676  
      33A      2.086254    34A      2.147314    35A      2.165583  
      36A      2.453504    37A      2.455832    38A      2.478186  
      39A      2.670851    40A      2.740611    41A      2.841667  
      42A      2.914907    43A      2.936119    44A      3.195268  
      45A      3.454474    46A      3.483180    47A      3.542087  
      48A      3.809822    49A      4.239450    50A      4.510569  
      51A     27.634021    52A     27.656261  

    Final Occupation by Irrep:
              A 
    DOCC [     8 ]

  Energy converged.

  @RHF Final Energy:   -77.99581317845008

   => Energetics <=

    Nuclear Repulsion Energy =             32.9986830804003120
    One-Electron Energy =                -169.2238757089763226
    Two-Electron Energy =                  58.2293794501259114
    DFT Exchange-Correlation Energy =       0.0000000000000000
    Empirical Dispersion Energy =           0.0000000000000000
    PCM Polarization Energy =               0.0000000000000000
    EFP Energy =                            0.0000000000000000
    Total Energy =                        -77.9958131784500779



Properties will be evaluated at   0.000000,   0.000000,   0.000000 Bohr

Properties computed using the SCF density matrix

  Nuclear Dipole Moment: (a.u.)
     X:     0.0000      Y:     0.0000      Z:     0.0000

  Electronic Dipole Moment: (a.u.)
     X:    -0.0000      Y:     0.0000      Z:    -0.0000

  Dipole Moment: (a.u.)
     X:    -0.0000      Y:     0.0000      Z:    -0.0000     Total:     0.0000

  Dipole Moment: (Debye)
     X:    -0.0000      Y:     0.0000      Z:    -0.0000     Total:     0.0000


*** tstop() called on Berts-MacBook-Pro.local at Wed Dec  6 22:59:41 2017
Module time:
	user time   =       0.39 seconds =       0.01 minutes
	system time =       0.06 seconds =       0.00 minutes
	total time  =          1 seconds =       0.02 minutes
Total time:
	user time   =       0.39 seconds =       0.01 minutes
	system time =       0.06 seconds =       0.00 minutes
	total time  =          1 seconds =       0.02 minutes

*** tstart() called on Berts-MacBook-Pro.local
*** at Wed Dec  6 22:59:45 2017


  //>>>>>>>>>>>>>>>>>>>>>>>>>>>>>>>>>>>//
  //               DFMP2               //
  //<<<<<<<<<<<<<<<<<<<<<<<<<<<<<<<<<<<//

   => Loading Basis Set <=

    Name: (DZP AUX)
    Role: RIFIT
    Keyword: DF_BASIS_MP2
    atoms 1-2 entry C          line   269 file /anaconda3/share/psi4/basis/def2-qzvpp-ri.gbs 
    atoms 3-6 entry H          line    23 file /anaconda3/share/psi4/basis/def2-qzvpp-ri.gbs 

	 --------------------------------------------------------
	                          DF-MP2                         
	      2nd-Order Density-Fitted Moller-Plesset Theory     
	              RMP2 Wavefunction,   1 Threads             
	                                                         
	        Rob Parrish, Justin Turney, Andy Simmonett,      
	           Ed Hohenstein, and C. David Sherrill          
	 --------------------------------------------------------

   => Auxiliary Basis Set <=

  Basis Set: (DZP AUX)
    Blend: DEF2-QZVPP-RI
    Number of shells: 130
    Number of basis function: 506
    Number of Cartesian functions: 666
    Spherical Harmonics?: true
    Max angular momentum: 5

	 --------------------------------------------------------
	                 NBF =    52, NAUX =   506
	 --------------------------------------------------------
	   CLASS    FOCC     OCC    AOCC    AVIR     VIR    FVIR
	   PAIRS       0       8       8      44      44       0
	 --------------------------------------------------------

	-----------------------------------------------------------
	 ==================> DF-MP2 Energies <==================== 
	-----------------------------------------------------------
	 Reference Energy          =     -77.9958131784500779 [Eh]
	 Singles Energy            =      -0.0000000000000000 [Eh]
	 Same-Spin Energy          =      -0.0609034330615676 [Eh]
	 Opposite-Spin Energy      =      -0.2467383767661685 [Eh]
	 Correlation Energy        =      -0.3076418098277361 [Eh]
	 Total Energy              =     -78.3034549882778208 [Eh]
	-----------------------------------------------------------
	 ================> DF-SCS-MP2 Energies <================== 
	-----------------------------------------------------------
	 SCS Same-Spin Scale       =       0.3333333333333333 [-]
	 SCS Opposite-Spin Scale   =       1.2000000000000000 [-]
	 SCS Same-Spin Energy      =      -0.0203011443538559 [Eh]
	 SCS Opposite-Spin Energy  =      -0.2960860521194022 [Eh]
	 SCS Correlation Energy    =      -0.3163871964732580 [Eh]
	 SCS Total Energy          =     -78.3122003749233357 [Eh]
	-----------------------------------------------------------


*** tstop() called on Berts-MacBook-Pro.local at Wed Dec  6 22:59:45 2017
Module time:
	user time   =       0.29 seconds =       0.00 minutes
	system time =       0.05 seconds =       0.00 minutes
	total time  =          0 seconds =       0.00 minutes
Total time:
	user time   =       4.72 seconds =       0.08 minutes
	system time =       0.26 seconds =       0.00 minutes
	total time  =          5 seconds =       0.08 minutes
 MINTS: Wrapper to libmints.
   by Justin Turney

   Calculation information:
      Number of threads:                 1
      Number of atoms:                   6
      Number of AO shells:              26
      Number of SO shells:              26
      Number of primitives:             50
      Number of atomic orbitals:        52
      Number of basis functions:        52

      Number of irreps:                  1
      Integral cutoff                 0.00e+00
      Number of functions per irrep: [  52 ]

 OEINTS: Overlap, kinetic, potential, dipole, and quadrupole integrals
         stored in file 35.

      Computing two-electron integrals...done
      Computed 838205 non-zero two-electron integrals.
        Stored in file 33.


         ---------------------------------------------------------
                          Configuration Interaction
                            (a 'D E T C I' module)

                 C. David Sherrill, Daniel G. A. Smith, and
                              Matt L. Leininger
         ---------------------------------------------------------


   ==> Parameters <==

    EX LEVEL       =        2      H0 BLOCKSIZE  =     1000
    VAL EX LEVEL   =        0      H0 GUESS SIZE =     1000
    H0COUPLINGSIZE =        0      H0 COUPLING   =       NO
    MAXITER        =       24      NUM PRINT     =       20
    NUM ROOTS      =        1      ICORE         =        1
    PRINT LVL      =        1      FCI           =       NO
    R CONV         = 1.00e-07      MIXED         =      YES
    E CONV         = 1.00e-07      MIXED4        =      YES
    R4S            =       NO      REPL OTF      =       NO
    DIAG METHOD    =      SEM      FOLLOW ROOT   =        0
    PRECONDITIONER = DAVIDSON      UPDATE        = DAVIDSON
    S              =   0.0000      Ms0           =      YES
    GUESS VECTOR   =  H0BLOCK      OPENTYPE      =     NONE
    COLLAPSE SIZE  =        1      HD AVG        = EVANGELISTI
    MAX NUM VECS   =       25      REF SYM       =     AUTO
    IOPEN        =       NO

    EX ALLOW       =  1  1 
    STATE AVERAGE  =  0(1.00) 

   ==> CI Orbital and Space information <==

    RAS1 LVL      =        7      A RAS3 MAX    =        2
    RAS1 MIN      =       14      B RAS3 MAX    =        2
    A RAS1 LVL    =        7      RAS4 LVL      =       52
    A RAS1 MIN    =        6      A RAS4 MAX    =        0
    A RAS1 MAX    =        8      B RAS4 MAX    =        0
    B RAS1 LVL    =        7      RAS4 MAX      =        0
    B RAS1 MIN    =        6      A RAS34 MAX   =        2
    B RAS1 MAX    =        8      B RAS34 MAX   =        2
    RAS3 LVL      =        8      RAS34 MAX     =        2
    RAS3 MAX      =        2
   ------------------------------------
               Space    Total     A
   ------------------------------------
                 Nso       52    52
                 Nmo       52    52
               Ndocc        8     8
               Nsocc        0     0
   ------------------------------------
              CI Spaces
   ------------------------------------
        Dropped DOCC        0     0
                RAS1        8     8
                RAS2        0     0
                RAS3       44    44
                RAS4        0     0
      Active (total)       52    52
        Dropped UOCC        0     0
   ------------------------------------

   ==> Setting up CI strings <==

    There are 26841 alpha and 26841 beta strings
    The CI space requires 177585 (1.78E+05) determinants and 6 blocks

   ==> Transforming CI integrals <==

	Presorting SO-basis two-electron integrals.
	Sorting File: SO Ints (nn|nn) nbuckets = 1
	Transforming the one-electron integrals and constructing Fock matrices
	Starting first half-transformation.
	Sorting half-transformed integrals.
	First half integral transformation complete.
	Starting second half-transformation.
	Two-electron integral transformation complete.

   ==> Starting CI iterations <==

    H0 Block Eigenvalue = -78.03572859

    Simultaneous Expansion Method (Block Davidson Method)
    Using 1 initial trial vectors

     Iter   Root       Total Energy       Delta E      C RMS

   @CI  0:     0    -78.035728588961   -1.1103E+02   1.5212E+00  
   @CI  1:     0    -78.293252931200   -2.5752E-01   1.5590E-01  
   @CI  2:     0    -78.305609055875   -1.2356E-02   5.3103E-02  
   @CI  3:     0    -78.306830610375   -1.2216E-03   1.5035E-02  
   @CI  4:     0    -78.306919994460   -8.9384E-05   4.4336E-03  
   @CI  5:     0    -78.306926697868   -6.7034E-06   1.1801E-03  
   @CI  6:     0    -78.306927168519   -4.7065E-07   3.2685E-04  
   @CI  7:     0    -78.306927203957   -3.5438E-08   9.1700E-05  
   @CI  8:     0    -78.306927206491   -2.5343E-09   2.1856E-05  
   @CI  9:     0    -78.306927206639   -1.4766E-10   5.4384E-06  
   @CI 10:     0    -78.306927206647   -8.0291E-12   1.0905E-06  
    Warning: Norm of correction (root 0) is < 1.0E-13
   @CI 11:     0    -78.306927206647   -3.4106E-13   2.3781E-07  
    Warning: Norm of correction (root 0) is < 1.0E-13
   @CI 12:     0    -78.306927206647   2.8422E-14   5.0775E-08 c

   ==> Energetics <==

    SCF energy =            0.000000000000000
    Total CI energy =     -78.306927206646861

   ==> CISD root 0 information <==

    CISD Root 0 energy =   -78.306927206646861

   The 20 most important determinants:

    *   1    0.948696  (    0,    0)  1AX 2AX 3AX 4AX 5AX 6AX 7AX 8AX 
    *   2   -0.098842  (    1,    1)  1AX 2AX 3AX 4AX 5AX 6AX 7AX 9AX 
    *   3   -0.040304  (    1,   81)  1AX 2AX 3AX 4AX 5AX 6AX 7AX 9AA 19AB 
    *   4   -0.040304  (   81,    1)  1AX 2AX 3AX 4AX 5AX 6AX 7AX 9AB 19AA 
    *   5    0.027278  (    1,    2)  1AX 2AX 3AX 4AX 5AX 6AX 7AA 8AB 9AX 
    *   6    0.027278  (    2,    1)  1AX 2AX 3AX 4AX 5AX 6AX 7AB 8AA 9AX 
    *   7   -0.027094  (   99,   99)  1AX 2AX 3AX 4AX 5AX 7AX 8AX 21AX 
    *   8   -0.023198  (   81,   81)  1AX 2AX 3AX 4AX 5AX 6AX 7AX 19AX 
    *   9   -0.022708  (    1,   99)  1AX 2AX 3AX 4AX 5AX 6AA 7AX 8AB 9AA 21AB 
    *  10   -0.022708  (   99,    1)  1AX 2AX 3AX 4AX 5AX 6AB 7AX 8AA 9AB 21AA 
    *  11   -0.019699  (    2,    2)  1AX 2AX 3AX 4AX 5AX 6AX 8AX 9AX 
    *  12   -0.019026  (   36,   36)  1AX 2AX 3AX 4AX 6AX 7AX 8AX 13AX 
    *  13   -0.018964  (    5,    5)  1AX 2AX 3AX 5AX 6AX 7AX 8AX 9AX 
    *  14   -0.018392  (    0, 2202)  1AX 2AX 3AX 4AX 5AX 6AA 7AX 8AA 9AB 21AB 
    *  15   -0.018392  ( 2202,    0)  1AX 2AX 3AX 4AX 5AX 6AB 7AX 8AB 9AA 21AA 
    *  16   -0.018024  (   43,   43)  1AX 2AX 3AX 4AX 5AX 7AX 8AX 14AX 
    *  17   -0.017739  (   81,   99)  1AX 2AX 3AX 4AX 5AX 6AA 7AX 8AB 19AA 21AB 
    *  18   -0.017739  (   99,   81)  1AX 2AX 3AX 4AX 5AX 6AB 7AX 8AA 19AB 21AA 
    *  19    0.015393  (    0,   57)  1AX 2AX 3AX 4AX 5AX 6AX 7AX 8AA 16AB 
    *  20    0.015393  (   57,    0)  1AX 2AX 3AX 4AX 5AX 6AX 7AX 8AB 16AA 

		 "A good bug is a dead bug" 

			 - Starship Troopers

		 "I didn't write FORTRAN.  That's the problem."

			 - Edward Valeev
 MINTS: Wrapper to libmints.
   by Justin Turney

   Calculation information:
      Number of threads:                 1
      Number of atoms:                   6
      Number of AO shells:              26
      Number of SO shells:              26
      Number of primitives:             50
      Number of atomic orbitals:        52
      Number of basis functions:        52

      Number of irreps:                  1
      Integral cutoff                 0.00e+00
      Number of functions per irrep: [  52 ]

 OEINTS: Overlap, kinetic, potential, dipole, and quadrupole integrals
         stored in file 35.

      Computing two-electron integrals...done
      Computed 838205 non-zero two-electron integrals.
        Stored in file 33.


*** tstart() called on Berts-MacBook-Pro.local
*** at Wed Dec  6 23:00:37 2017


	Wfn Parameters:
	--------------------
	Wavefunction         = CCSD
	Number of irreps     = 1
	Number of MOs        = 52
	Number of active MOs = 52
	AO-Basis             = NONE
	Semicanonical        = false
	Reference            = RHF
	Print Level          = 1

	IRREP	# MOs	# FZDC	# DOCC	# SOCC	# VIRT	# FZVR
	-----	-----	------	------	------	------	------
	 A	   52	    0	    8	    0	    44	    0
	Transforming integrals...
	IWL integrals will be deleted.
	(OO|OO)...
	Presorting SO-basis two-electron integrals.
	Sorting File: SO Ints (nn|nn) nbuckets = 1
	Transforming the one-electron integrals and constructing Fock matrices
	Starting first half-transformation.
	Sorting half-transformed integrals.
	First half integral transformation complete.
	Starting second half-transformation.
	Two-electron integral transformation complete.
	(OO|OV)...
	Starting second half-transformation.
	Two-electron integral transformation complete.
	(OO|VV)...
	Starting second half-transformation.
	Two-electron integral transformation complete.
	(OV|OO)...
	Starting first half-transformation.
	Sorting half-transformed integrals.
	First half integral transformation complete.
	Starting second half-transformation.
	Two-electron integral transformation complete.
	(OV|OV)...
	Starting second half-transformation.
	Two-electron integral transformation complete.
	(OV|VV)...
	Starting second half-transformation.
	Two-electron integral transformation complete.
	(VV|OO)...
	Starting first half-transformation.
	Sorting half-transformed integrals.
	First half integral transformation complete.
	Starting second half-transformation.
	Two-electron integral transformation complete.
	(VV|OV)...
	Starting second half-transformation.
	Two-electron integral transformation complete.
	(VV|VV)...
	Starting second half-transformation.
	Two-electron integral transformation complete.
	Frozen core energy     =      0.00000000000000

	Size of irrep 0 of <ab|cd> integrals:      3.748 (MW) /     29.985 (MB)
	Total:                                     3.748 (MW) /     29.985 (MB)

	Size of irrep 0 of <ia|bc> integrals:      0.681 (MW) /      5.452 (MB)
	Total:                                     0.681 (MW) /      5.452 (MB)

	Size of irrep 0 of tijab amplitudes:       0.124 (MW) /      0.991 (MB)
	Total:                                     0.124 (MW) /      0.991 (MB)

	Nuclear Rep. energy          =     32.99868308040031
	SCF energy                   =    -77.99581317845008
	One-electron energy          =   -169.22387575953479
	Two-electron energy          =     58.22937950068437
	Reference energy             =    -77.99581317845012

*** tstop() called on Berts-MacBook-Pro.local at Wed Dec  6 23:00:38 2017
Module time:
	user time   =       0.27 seconds =       0.00 minutes
	system time =       0.85 seconds =       0.01 minutes
	total time  =          1 seconds =       0.02 minutes
Total time:
	user time   =      55.50 seconds =       0.93 minutes
	system time =       1.76 seconds =       0.03 minutes
	total time  =         58 seconds =       0.97 minutes

*** tstart() called on Berts-MacBook-Pro.local
*** at Wed Dec  6 23:00:38 2017

            **************************
            *                        *
            *        CCENERGY        *
            *                        *
            **************************

    Nuclear Rep. energy (wfn)     =   32.998683080400312
    SCF energy          (wfn)     =  -77.995813178450078
    Reference energy    (file100) =  -77.995813178450121

    Input parameters:
    -----------------
    Wave function   =     CCSD
    Reference wfn   =     RHF
    Brueckner       =     No
    Memory (Mbytes) =     8000.0
    Maxiter         =   1000000
    R_Convergence   =     1.0e-07
    E_Convergence   =     1.0e-07
    Restart         =     Yes
    DIIS            =     Yes
    AO Basis        =     NONE
    ABCD            =     NEW
    Cache Level     =     2
    Cache Type      =     LOW
    Print Level     =     1
    Num. of threads =     1
    # Amps to Print =     1000000
    Print MP2 Amps? =     No
    Analyze T2 Amps =     No
    Print Pair Ener =     No
    Local CC        =     No
    SCS-MP2         =     False
    SCSN-MP2        =     False
    SCS-CCSD        =     False

MP2 correlation energy -0.3076499147502594
                Solving CC Amplitude Equations
                ------------------------------
  Iter             Energy              RMS        T1Diag      D1Diag    New D1Diag    D2Diag
  ----     ---------------------    ---------   ----------  ----------  ----------   --------
     0        -0.307649914750259    0.000e+00    0.000000    0.000000    0.000000    0.164564
     1        -0.327944996981497    5.789e-02    0.007087    0.025395    0.025395    0.185040
     2        -0.338872707586058    2.715e-02    0.008969    0.032982    0.032982    0.209805
     3        -0.340501793165789    1.113e-02    0.010391    0.038752    0.038752    0.223072
     4        -0.340643201534557    4.323e-03    0.010600    0.039823    0.039823    0.229616
     5        -0.340674250910062    1.016e-03    0.010580    0.039788    0.039788    0.230565
     6        -0.340669070785956    2.937e-04    0.010563    0.039729    0.039729    0.230590
     7        -0.340668581873879    1.022e-04    0.010558    0.039709    0.039709    0.230606
     8        -0.340668350193063    2.739e-05    0.010557    0.039708    0.039708    0.230603
     9        -0.340668187436708    7.313e-06    0.010557    0.039708    0.039708    0.230602
    10        -0.340668425461639    2.232e-06    0.010557    0.039709    0.039709    0.230604
    11        -0.340668424985777    6.446e-07    0.010557    0.039709    0.039709    0.230603
    12        -0.340668441619170    1.556e-07    0.010557    0.039709    0.039709    0.230604
    13        -0.340668439387971    4.561e-08    0.010557    0.039709    0.039709    0.230604

    Iterations converged.


    Largest TIA Amplitudes:
              7   7         0.0274081257
              7   9         0.0236062947
              7  20         0.0088005469
              7   8         0.0084804232
              6   9         0.0067670045
              6   7         0.0053040077
              4   4         0.0052947885
              7  17        -0.0050848459
              7  29         0.0045103268
              3  13         0.0043127938
              5  21         0.0042824390
              5   5         0.0040075657
              3  24         0.0032923693
              4  22        -0.0031960697
              6  33         0.0029176576
              2  40         0.0026213022
              2   2        -0.0025863662
              2  26        -0.0025498334
              2  21         0.0024792375
              4  15         0.0024392364
              5  34        -0.0022929727
              3  41         0.0018591085
              6  17        -0.0018373733
              5  18         0.0018186643
              3  27        -0.0017569777
              7  33        -0.0017241232
              4  32         0.0017217348
              4  10        -0.0016910136
              7  23         0.0016100089
              6  23        -0.0015958030
              4  38         0.0015785974
              6  20         0.0015646165
              2   5         0.0015337067
              3  35         0.0015207092
              3  37         0.0012709429
              2  11         0.0012372822
              5  14        -0.0011601193
              5   2        -0.0010866180
              3   1        -0.0010635160
              5  11        -0.0010422871
              5  36        -0.0010353837
              2  30        -0.0010305827
              3  31        -0.0009990021
              2  36         0.0009686553
              6   8        -0.0009474846
              7  39         0.0009440975
              4  25         0.0009278480
              6  39         0.0009069142
              4   0        -0.0008743552
              3  12         0.0008594466
              4  28         0.0008312194
              2  14         0.0008278420
              1  13        -0.0005655390
              5  26         0.0005331140
              5  40         0.0004905467
              0  40        -0.0004559143
              1  41        -0.0003809854
              3  16         0.0003548090
              3  19        -0.0003388097
              1   1        -0.0003293274
              0  11        -0.0003185408
              2  34        -0.0003061543
              0  14        -0.0002977966
              3   3         0.0002638915
              0   2        -0.0002558559
              1  12        -0.0002540560
              1  35        -0.0002275260
              4   6         0.0001735512
              0  36        -0.0001723798
              1   3        -0.0001644265
              0   5        -0.0001448540
              1  37        -0.0001426667
              5  30         0.0001388042
              2  42         0.0001212169
              1  27        -0.0001205609
              0  21        -0.0001142597
              1  24        -0.0001113416
              1  43         0.0000969939
              0  42         0.0000964659
              3  43         0.0000909373
              6  29         0.0000634381
              1  16        -0.0000582825
              0  34        -0.0000436250
              5  42         0.0000176241
              1  31        -0.0000155929
              0  26         0.0000110503
              1  19        -0.0000078448
              0  18         0.0000044213
              0  30         0.0000020618
              2  18         0.0000010469

    Largest TIjAb Amplitudes:
      7   7   0   0        -0.1558545226
      7   7   0  10        -0.0564730133
      7   7  10   0        -0.0564730133
      6   7   0   0        -0.0360440615
      7   6   0   0        -0.0360440615
      5   5  12  12        -0.0313189648
      7   7  10  10        -0.0275376045
      5   7  12   0        -0.0261224383
      7   5   0  12        -0.0261224383
      6   6   0   0        -0.0245396569
      4   4   4   4        -0.0231047531
      3   3   0   0        -0.0220339603
      5   5   5   5        -0.0217218482
      5   7  12  10        -0.0206060941
      7   5  10  12        -0.0206060941
      6   7   0  10        -0.0198302355
      7   6  10   0        -0.0198302355
      6   6   4   4        -0.0186670808
      6   7   0   4        -0.0183236967
      7   6   4   0        -0.0183236967
      6   6   7   7        -0.0182807486
      3   7   2   0        -0.0181994518
      7   3   0   2        -0.0181994518
      6   7  10   0        -0.0175131672
      7   6   0  10        -0.0175131672
      2   7   0  12        -0.0171679937
      7   2  12   0        -0.0171679937
      2   7  12   0        -0.0170353555
      7   2   0  12        -0.0170353555
      6   6   3   3        -0.0169365027
      3   7   0   2        -0.0165698167
      7   3   2   0        -0.0165698167
      2   7   1   0        -0.0162501839
      7   2   0   1        -0.0162501839
      4   6   4   9         0.0161861244
      6   4   9   4         0.0161861244
      4   5   4   5         0.0158868404
      5   4   5   4         0.0158868404
      7   7  11  11        -0.0158027777
      2   7   0   3        -0.0153675361
      7   2   3   0        -0.0153675361
      5   6   5   7         0.0152782352
      6   5   7   5         0.0152782352
      4   6   2   3        -0.0152714560
      6   4   3   2        -0.0152714560
      4   4   2   2        -0.0152178622
      4   6   4   7        -0.0151083826
      6   4   7   4        -0.0151083826
      7   7   9   9        -0.0150438575
      4   7   9   0         0.0149751786
      7   4   0   9         0.0149751786
      5   5   4   4        -0.0149511891
      4   4   6   6        -0.0146483684
      2   2  12  12        -0.0146018111
      2   7   0   1        -0.0140092557
      7   2   1   0        -0.0140092557
      3   5   1   5         0.0138101626
      5   3   5   1         0.0138101626
      4   6   6   7        -0.0135040143
      6   4   7   6        -0.0135040143
      4   4   9   9        -0.0133895175
      3   7   0  11         0.0133865513
      7   3  11   0         0.0133865513
      5   5   0   0        -0.0133331699
      4   7   0   9         0.0132783887
      7   4   9   0         0.0132783887
      7   7   0   6         0.0132424263
      7   7   6   0         0.0132424263
      5   6   4   3         0.0131659868
      6   5   3   4         0.0131659868
      5   7   5   9         0.0131156871
      7   5   9   5         0.0131156871
      3   5   2  12        -0.0129505111
      5   3  12   2        -0.0129505111
      7   7   4   4        -0.0128752756
      3   3  12  12        -0.0127602891
      5   6  12   0        -0.0127411186
      6   5   0  12        -0.0127411186
      3   7   0   5        -0.0125944173
      7   3   5   0        -0.0125944173
      2   7   3   0        -0.0125518034
      7   2   0   3        -0.0125518034
      4   4   3   3        -0.0124890494
      6   7  10  10        -0.0124843082
      7   6  10  10        -0.0124843082
      2   7   1  10        -0.0124284622
      7   2  10   1        -0.0124284622
      6   6   2   2        -0.0123619974
      3   6   0  18         0.0123309586
      6   3  18   0         0.0123309586
      4   6   9   4         0.0123091919
      6   4   4   9         0.0123091919
      2   5  13  12        -0.0122855423
      5   2  12  13        -0.0122855423
      2   7  13  10        -0.0121998143
      7   2  10  13        -0.0121998143
      2   7  12  10        -0.0121723510
      7   2  10  12        -0.0121723510
      3   6   1   7        -0.0121648139
      6   3   7   1        -0.0121648139
      3   4   1   4        -0.0120496002
      4   3   4   1        -0.0120496002
      3   3   2   2        -0.0120474694
      2   2   0   0        -0.0118847716
      2   7  13   0        -0.0118221584
      7   2   0  13        -0.0118221584
      4   7   4   9        -0.0117886456
      7   4   9   4        -0.0117886456
      3   7   5   0        -0.0117604087
      7   3   0   5        -0.0117604087
      3   7   0  14        -0.0117213574
      7   3  14   0        -0.0117213574
      4   7   6   9        -0.0116898520
      7   4   9   6        -0.0116898520
      6   7   7   9        -0.0116667692
      7   6   9   7        -0.0116667692
      4   6   3   2        -0.0116578497
      6   4   2   3        -0.0116578497
      3   3   1   1        -0.0115310414
      5   6  12   6        -0.0115138768
      6   5   6  12        -0.0115138768
      7   7   8   8        -0.0114877104
      6   7   6   0        -0.0113508505
      7   6   0   6        -0.0113508505
      4   5   6   5         0.0112625854
      5   4   5   6         0.0112625854
      7   7  12  12        -0.0112112794
      6   6   9   9        -0.0111039958
      5   7   0   3         0.0110708054
      7   5   3   0         0.0110708054
      4   7   9  10         0.0109476510
      7   4  10   9         0.0109476510
      5   5   2   2        -0.0109271115
      4   4   0   0        -0.0109027538
      4   6   4  17        -0.0109009731
      6   4  17   4        -0.0109009731
      5   6   5   9        -0.0108932429
      6   5   9   5        -0.0108932429
      3   7   1   9        -0.0108914980
      7   3   9   1        -0.0108914980
      5   7   5   8         0.0108717309
      7   5   8   5         0.0108717309
      6   6   7   9         0.0107900071
      6   6   9   7         0.0107900071
      6   6  14  14        -0.0107514723
      4   7   4   8        -0.0106458477
      7   4   8   4        -0.0106458477
      3   7   2  10        -0.0106133388
      7   3  10   2        -0.0106133388
      3   4   0  19         0.0105672903
      4   3  19   0         0.0105672903
      3   3  14  14        -0.0105402732
      6   7   7   7        -0.0105099681
      7   6   7   7        -0.0105099681
      3   3   5   5        -0.0104984103
      5   5  20  20        -0.0103609620
      4   5   2   4         0.0102464146
      5   4   4   2         0.0102464146
      3   5  13   5         0.0102435245
      5   3   5  13         0.0102435245
      3   4  13   4        -0.0101538295
      4   3   4  13        -0.0101538295
      5   5  15  15        -0.0101459520
      4   4   4  15        -0.0101239716
      4   4  15   4        -0.0101239716
      6   6  16  16        -0.0101133635
      5   7   3   0         0.0100324679
      7   5   0   3         0.0100324679
      6   7   4   4         0.0100046653
      7   6   4   4         0.0100046653
      3   7   5  10        -0.0099873492
      7   3  10   5        -0.0099873492
      4   6  14   3        -0.0099524751
      6   4   3  14        -0.0099524751
      2   5   1  12        -0.0098983196
      5   2  12   1        -0.0098983196
      3   6  13   7        -0.0098650386
      6   3   7  13        -0.0098650386
      6   6  18  18        -0.0098589368
      4   4  15  15        -0.0098440066
      3   5   0  20         0.0098069293
      5   3  20   0         0.0098069293
      3   5   3   2         0.0097798732
      5   3   2   3         0.0097798732
      3   3   3   3        -0.0097671250
      4   4  19  19        -0.0097057294
      2   7   0  16        -0.0096896715
      7   2  16   0        -0.0096896715
      4   4  18  18        -0.0096719701
      4   4  14  14        -0.0096360636
      3   5  12   2        -0.0096233475
      5   3   2  12        -0.0096233475
      3   5   2   3         0.0096136588
      5   3   3   2         0.0096136588
      7   7   3   3        -0.0096055951
      3   5   5  12        -0.0095912574
      5   3  12   5        -0.0095912574
      3   7  14   0        -0.0095397228
      7   3   0  14        -0.0095397228
      3   6   1   9         0.0095026265
      6   3   9   1         0.0095026265
      5   6  12  10        -0.0095025699
      6   5  10  12        -0.0095025699
      3   7   0  26         0.0094527900
      7   3  26   0         0.0094527900
      4   4   0   4         0.0094411740
      4   4   4   0         0.0094411740
      2   4   0  18         0.0093529305
      4   2  18   0         0.0093529305
      4   6   3  14        -0.0093497535
      6   4  14   3        -0.0093497535
      4   6  15  17        -0.0093471516
      6   4  17  15        -0.0093471516
      4   6  19  18        -0.0093314137
      6   4  18  19        -0.0093314137
      6   6  17  17        -0.0093259001
      6   7   7   8        -0.0092987685
      7   6   8   7        -0.0092987685
      4   5   9  12         0.0092921190
      5   4  12   9         0.0092921190
      2   2  13  13        -0.0092868499
      7   7   6  10         0.0092706865
      7   7  10   6         0.0092706865
      5   5   4  15        -0.0092297832
      5   5  15   4        -0.0092297832
      7   7   7   7        -0.0092261436
      4   6  14  16        -0.0091853570
      6   4  16  14        -0.0091853570
      4   7   7   0        -0.0091256918
      7   4   0   7        -0.0091256918
      6   7   6  10        -0.0091012639
      7   6  10   6        -0.0091012639
      6   7   9   9         0.0091005800
      7   6   9   9         0.0091005800
      2   2   4   4        -0.0090811362
      4   6  16  14        -0.0090738249
      6   4  14  16        -0.0090738249
      3   3   2  14        -0.0090335864
      3   3  14   2        -0.0090335864
      6   6  15  15        -0.0089622646
      2   5  12  12        -0.0089349049
      5   2  12  12        -0.0089349049
      2   5  11   5         0.0088949684
      5   2   5  11         0.0088949684
      4   7   6   8        -0.0088667889
      7   4   8   6        -0.0088667889
      5   7   5   7         0.0088039841
      7   5   7   5         0.0088039841
      4   4  16  16        -0.0087836344
      6   6   6   6        -0.0087440237
      7   7   1   1        -0.0087109024
      3   4   1   6        -0.0087108086
      4   3   6   1        -0.0087108086
      5   6  15  16         0.0086908730
      6   5  16  15         0.0086908730
      3   5  11  12        -0.0086844003
      5   3  12  11        -0.0086844003
      2   7  10  12        -0.0086691208
      7   2  12  10        -0.0086691208
      3   7   1   8        -0.0086685629
      7   3   8   1        -0.0086685629
      3   3   0  10        -0.0086572363
      3   3  10   0        -0.0086572363
      6   6  19  19        -0.0086268374
      4   4   4   6        -0.0085883138
      4   4   6   4        -0.0085883138
      3   4   0   3         0.0085802766
      4   3   3   0         0.0085802766
      3   4   5   9         0.0085288135
      4   3   9   5         0.0085288135
      4   5   7  12        -0.0085193145
      5   4  12   7        -0.0085193145
      4   4   7   9         0.0084988930
      4   4   9   7         0.0084988930
      2   2   0  10        -0.0084916140
      2   2  10   0        -0.0084916140
      5   5   3   3        -0.0084713093
      4   6  17   4        -0.0084582931
      6   4   4  17        -0.0084582931
      2   2  12  13        -0.0084458698
      2   2  13  12        -0.0084458698
      5   6   4  16         0.0084052372
      6   5  16   4         0.0084052372
      7   7   8   9        -0.0084043947
      7   7   9   8        -0.0084043947
      2   4  13   9         0.0083899306
      4   2   9  13         0.0083899306
      6   6   3  16        -0.0083772413
      6   6  16   3        -0.0083772413
      4   6   7   4        -0.0082676579
      6   4   4   7        -0.0082676579
      6   7   0  15        -0.0082539080
      7   6  15   0        -0.0082539080
      6   6   0  10        -0.0081923694
      6   6  10   0        -0.0081923694
      4   7   4  20         0.0081115340
      7   4  20   4         0.0081115340
      3   7  13   9        -0.0081073399
      7   3   9  13        -0.0081073399
      2   4  11   6        -0.0080795585
      4   2   6  11        -0.0080795585
      3   3  13  13        -0.0080433904
      6   6   4  15        -0.0080392188
      6   6  15   4        -0.0080392188
      4   5  14   4         0.0080216276
      5   4   4  14         0.0080216276
      2   2  10  10        -0.0079989023
      7   7  19  19        -0.0079931248
      2   6  11   7        -0.0079885231
      6   2   7  11        -0.0079885231
      4   6   7   6        -0.0079468559
      6   4   6   7        -0.0079468559
      3   7   3   9        -0.0079403351
      7   3   9   3        -0.0079403351
      2   7  10   1        -0.0079145061
      7   2   1  10        -0.0079145061
      3   3   1  13        -0.0079086383
      3   3  13   1        -0.0079086383
      3   3   4   4        -0.0079082171
      4   4   2  14        -0.0079025552
      4   4  14   2        -0.0079025552
      3   6   5   4        -0.0078944234
      6   3   4   5        -0.0078944234
      5   5   3  12         0.0078735149
      5   5  12   3         0.0078735149
      4   7   7  10        -0.0078596630
      7   4  10   7        -0.0078596630
      6   6   2  14        -0.0078455708
      6   6  14   2        -0.0078455708
      3   6   4   2        -0.0078343522
      6   3   2   4        -0.0078343522
      5   5  21  21        -0.0078251269
      6   6  10  10        -0.0078232647
      5   7  12   6         0.0078184155
      7   5   6  12         0.0078184155
      4   4   7   7        -0.0077913944
      3   3   9   9        -0.0077744554
      5   5   1   1        -0.0077731854
      3   5   3  14         0.0077715094
      5   3  14   3         0.0077715094
      4   4  17  17        -0.0077500312
      4   5   8  12         0.0077334809
      5   4  12   8         0.0077334809
      4   5   4  21         0.0077062503
      5   4  21   4         0.0077062503
      3   5  14   3         0.0076614333
      5   3   3  14         0.0076614333
      3   5   5   1         0.0076543428
      5   3   1   5         0.0076543428
      2   2  11  11        -0.0076336640
      2   6   0  19         0.0076074621
      6   2  19   0         0.0076074621
      4   5  19  20        -0.0075890993
      5   4  20  19        -0.0075890993
      4   6  17  15        -0.0075744315
      6   4  15  17        -0.0075744315
      2   4   1   9         0.0075651735
      4   2   9   1         0.0075651735
      3   5   0  17        -0.0075200275
      5   3  17   0        -0.0075200275
      5   5  14  14        -0.0074942715
      3   3  16  16        -0.0074627680
      2   5   2   5         0.0074104182
      5   2   5   2         0.0074104182
      5   6  20  18        -0.0074017968
      6   5  18  20        -0.0074017968
      4   6  18  19        -0.0073778688
      6   4  19  18        -0.0073778688
      5   6  15   3         0.0073695074
      6   5   3  15         0.0073695074
      5   7   4  19         0.0073647583
      7   5  19   4         0.0073647583
      3   6  15  14        -0.0073163319
      6   3  14  15        -0.0073163319
      2   7   0  13        -0.0073065210
      7   2  13   0        -0.0073065210
      2   6   2   7        -0.0072971987
      6   2   7   2        -0.0072971987
      3   3   2   5        -0.0072511251
      3   3   5   2        -0.0072511251
      6   7  22   0        -0.0072395103
      7   6   0  22        -0.0072395103
      7   7  20  20        -0.0072336918
      3   6  13   9         0.0072137202
      6   3   9  13         0.0072137202
      3   4  13   6        -0.0072104764
      4   3   6  13        -0.0072104764
      4   5  14  15         0.0071942354
      5   4  15  14         0.0071942354
      5   5  17  17        -0.0071902036
      5   7   0  16         0.0071665370
      7   5  16   0         0.0071665370
      2   6  13   4        -0.0071236312
      6   2   4  13        -0.0071236312
      2   4   2   6        -0.0071205483
      4   2   6   2        -0.0071205483
      6   7   9   8         0.0071035471
      7   6   8   9         0.0071035471
      5   5   2  14        -0.0071025487
      5   5  14   2        -0.0071025487
      4   6   6   9         0.0070860405
      6   4   9   6         0.0070860405
      7   7   7   9        -0.0070367011
      7   7   9   7        -0.0070367011
      3   5   3   5         0.0070262681
      5   3   5   3         0.0070262681
      4   6   9   6         0.0070193212
      6   4   6   9         0.0070193212
      4   5  16  17         0.0070060782
      5   4  17  16         0.0070060782
      3   7  10   2        -0.0069920699
      7   3   2  10        -0.0069920699
      7   7   2   2        -0.0069737536
      2   5  12  13        -0.0069613976
      5   2  13  12        -0.0069613976
      6   6  11  11        -0.0069610096
      6   6   1   1        -0.0069533893
      3   5  14  16         0.0069525600
      5   3  16  14         0.0069525600
      3   5  14  12        -0.0069394074
      5   3  12  14        -0.0069394074
      4   7   6   7        -0.0068551684
      7   4   7   6        -0.0068551684
      2   4  12   9         0.0068481673
      4   2   9  12         0.0068481673
      4   4   3  16        -0.0068291299
      4   4  16   3        -0.0068291299
      2   7   2   9        -0.0068247478
      7   2   9   2        -0.0068247478
      2   2   4  15        -0.0067930863
      2   2  15   4        -0.0067930863
      2   2  15  15        -0.0067899378
      5   5  11  11        -0.0067837979
      3   5   0   8        -0.0067744019
      5   3   8   0        -0.0067744019
      3   5  16  14         0.0067637883
      5   3  14  16         0.0067637883
      6   6   4  10        -0.0067630866
      6   6  10   4        -0.0067630866
      7   7   0   4        -0.0067488284
      7   7   4   0        -0.0067488284
      7   7   7   8        -0.0067325781
      7   7   8   7        -0.0067325781
      5   7  15  19         0.0067093674
      7   5  19  15         0.0067093674
      5   6   1   4         0.0066963295
      6   5   4   1         0.0066963295
      2   2   7   7        -0.0066826154
      3   6  18   0         0.0066791271
      6   3   0  18         0.0066791271
      4   7   3  11        -0.0066605166
      7   4  11   3        -0.0066605166
      5   7  13   0        -0.0066561545
      7   5   0  13        -0.0066561545
      3   3  10  10        -0.0066339778
      2   7  11   9        -0.0066298538
      7   2   9  11        -0.0066298538
      3   7  13   8        -0.0066298328
      7   3   8  13        -0.0066298328
      7   7   1  12        -0.0066099266
      7   7  12   1        -0.0066099266
      3   6   4  14        -0.0066073558
      6   3  14   4        -0.0066073558
      2   2   1  13        -0.0065963650
      2   2  13   1        -0.0065963650
      3   5   0   9         0.0065659455
      5   3   9   0         0.0065659455
      2   3   0   9        -0.0065547835
      3   2   9   0        -0.0065547835
      2   3   2   3        -0.0065479243
      3   2   3   2        -0.0065479243
      4   5   3   9        -0.0065470811
      5   4   9   3        -0.0065470811
      4   7   9   4        -0.0065430687
      7   4   4   9        -0.0065430687
      2   5  12  27        -0.0065387188
      5   2  27  12        -0.0065387188
      4   7   8  10         0.0065382801
      7   4  10   8         0.0065382801
      5   6  17  14         0.0065107740
      6   5  14  17         0.0065107740
      3   7   9   3        -0.0065105540
      7   3   3   9        -0.0065105540
      3   4   4   3        -0.0065059365
      4   3   3   4        -0.0065059365
      3   6   3   7        -0.0064972942
      6   3   7   3        -0.0064972942
      5   7   0  12        -0.0064950354
      7   5  12   0        -0.0064950354
      2   2  20  20        -0.0064546230
      2   7  10  13        -0.0064423390
      7   2  13  10        -0.0064423390
      6   6   6  10        -0.0064363293
      6   6  10   6        -0.0064363293
      4   7   8   0         0.0064258037
      7   4   0   8         0.0064258037
      2   7  10   3        -0.0063628595
      7   2   3  10        -0.0063628595
      3   6   2   6        -0.0063379374
      6   3   6   2        -0.0063379374
      2   6  13  10        -0.0063350050
      6   2  10  13        -0.0063350050
      3   4   2   9         0.0063336824
      4   3   9   2         0.0063336824
      3   7  12  20         0.0063217278
      7   3  20  12         0.0063217278
      3   3  18  18        -0.0063207867
      3   3   3  16        -0.0063200600
      3   3  16   3        -0.0063200600
      3   3  19  19        -0.0063068794
      5   7   2   9         0.0063050069
      7   5   9   2         0.0063050069
      7   7   1   3        -0.0063022682
      7   7   3   1        -0.0063022682
      3   4   4  13        -0.0062781531
      4   3  13   4        -0.0062781531
      7   7  26  26        -0.0062700345
      2   7  11   7        -0.0062604343
      7   2   7  11        -0.0062604343
      3   4  15  16        -0.0062429898
      4   3  16  15        -0.0062429898
      2   6   4   1        -0.0062403543
      6   2   1   4        -0.0062403543
      3   3  15  15        -0.0062074595
      2   2   1  12        -0.0062052693
      2   2  12   1        -0.0062052693
      3   4   5   7        -0.0061864521
      4   3   7   5        -0.0061864521
      3   3  17  17        -0.0061818526
      2   6   1  10        -0.0061764756
      6   2  10   1        -0.0061764756
      6   7   4  10        -0.0061712457
      7   6  10   4        -0.0061712457
      3   4   3   4        -0.0061646529
      4   3   4   3        -0.0061646529
      3   7  14  10        -0.0061599747
      7   3  10  14        -0.0061599747
      7   7  18  18        -0.0061560185
      3   7   9   1        -0.0061320559
      7   3   1   9        -0.0061320559
      3   6   4   5        -0.0061318124
      6   3   5   4        -0.0061318124
      4   7   3   2         0.0061304385
      7   4   2   3         0.0061304385
      5   5   5  21        -0.0061253122
      5   5  21   5        -0.0061253122
      7   7   5   5        -0.0061232695
      2   5   0  22        -0.0061210263
      5   2  22   0        -0.0061210263
      3   3  20  20        -0.0061165901
      4   4   9  17         0.0061132417
      4   4  17   9         0.0061132417
      2   7   3  10        -0.0061116103
      7   2  10   3        -0.0061116103
      4   5  15  11        -0.0061094385
      5   4  11  15        -0.0061094385
      4   6   7  10        -0.0061047827
      6   4  10   7        -0.0061047827
      4   7  15  20         0.0060932097
      7   4  20  15         0.0060932097
      3   5  12  21         0.0060743336
      5   3  21  12         0.0060743336
      3   4  17  14        -0.0060584843
      4   3  14  17        -0.0060584843
      2   4  13   7        -0.0060529291
      4   2   7  13        -0.0060529291
      2   6   4  13        -0.0060471213
      6   2  13   4        -0.0060471213
      7   7  13  13        -0.0060199979
      2   3   1   5        -0.0060120961
      3   2   5   1        -0.0060120961
      3   6  14   4        -0.0059911205
      6   3   4  14        -0.0059911205
      2   6   4  12        -0.0059792057
      6   2  12   4        -0.0059792057
      2   2   1   1        -0.0059758156
      3   4  19   0         0.0059731714
      4   3   0  19         0.0059731714
      5   5  22  22        -0.0059699546
      3   3  11  11        -0.0059387705
      3   6   5   6        -0.0059208055
      6   3   6   5        -0.0059208055
      4   5   3  17         0.0059192611
      5   4  17   3         0.0059192611
      5   6   3   4         0.0059025619
      6   5   4   3         0.0059025619
      3   6   5  10        -0.0058975161
      6   3  10   5        -0.0058975161
      5   7  20  26        -0.0058802248
      7   5  26  20        -0.0058802248
      6   6  23  23        -0.0058540517
      4   6  16  11         0.0058485430
      6   4  11  16         0.0058485430
      2   6  13   6        -0.0058321573
      6   2   6  13        -0.0058321573
      6   6  13  13        -0.0058054951
      4   6  11  16         0.0057950904
      6   4  16  11         0.0057950904
      3   4   3   6        -0.0057849058
      4   3   6   3        -0.0057849058
      7   7   3  12        -0.0057746801
      7   7  12   3        -0.0057746801
      3   6   7   1        -0.0057687961
      6   3   1   7        -0.0057687961
      2   3   3   2        -0.0057343170
      3   2   2   3        -0.0057343170
      7   7   0  15        -0.0057338573
      7   7  15   0        -0.0057338573
      2   6   1   4        -0.0057295757
      6   2   4   1        -0.0057295757
      4   4   1   1        -0.0057274428
      2   7   0  24        -0.0057270094
      7   2  24   0        -0.0057270094
      5   7   1   4        -0.0057240626
      7   5   4   1        -0.0057240626
      3   3   3  12         0.0057224883
      3   3  12   3         0.0057224883
      2   5   2   2         0.0057125943
      5   2   2   2         0.0057125943
      5   5   0   4         0.0057119933
      5   5   4   0         0.0057119933
      3   4   2  23        -0.0057074558
      4   3  23   2        -0.0057074558
      4   7   9   6        -0.0057003792
      7   4   6   9        -0.0057003792
      4   7  18  12         0.0056988451
      7   4  12  18         0.0056988451
      4   4  11  11        -0.0056976047
      3   7   1   7        -0.0056959468
      7   3   7   1        -0.0056959468
      4   7   0  17        -0.0056949167
      7   4  17   0        -0.0056949167
      2   5  27  12        -0.0056841359
      5   2  12  27        -0.0056841359
      4   6   2  16        -0.0056796605
      6   4  16   2        -0.0056796605
      5   7  10  12        -0.0056681969
      7   5  12  10        -0.0056681969
      5   7  21  20        -0.0056440721
      7   5  20  21        -0.0056440721
      2   4  18   0         0.0056412225
      4   2   0  18         0.0056412225
      6   6  21  21        -0.0056325194
      3   7  13   7        -0.0056284663
      7   3   7  13        -0.0056284663
      4   6   9  10         0.0056215741
      6   4  10   9         0.0056215741
      3   5  10  20         0.0056196239
      5   3  20  10         0.0056196239
      2   2   9   9        -0.0056018103
      4   4  21  21        -0.0056004062
      4   6   0  17         0.0055960665
      6   4  17   0         0.0055960665
      3   6   2  22        -0.0055949222
      6   3  22   2        -0.0055949222
      3   6  21   4        -0.0055944773
      6   3   4  21        -0.0055944773
      5   5  13  13        -0.0055759695
      3   4   2   7        -0.0055456343
      4   3   7   2        -0.0055456343
      2   3  13   5        -0.0055448666
      3   2   5  13        -0.0055448666
      4   4   0  15         0.0055444755
      4   4  15   0         0.0055444755
      3   7  11  10        -0.0055416905
      7   3  10  11        -0.0055416905
      4   7  18  19         0.0055403664
      7   4  19  18         0.0055403664
      3   6   2   4        -0.0055241419
      6   3   4   2        -0.0055241419
      2   7  24   0        -0.0055171625
      7   2   0  24        -0.0055171625
      7   7   6   6        -0.0055152085
      3   5   2  16         0.0055127768
      5   3  16   2         0.0055127768
      2   4   1   7        -0.0055020881
      4   2   7   1        -0.0055020881
      6   6   3  13        -0.0055009134
      6   6  13   3        -0.0055009134
      6   6   9  17         0.0054903828
      6   6  17   9         0.0054903828
      3   6  17  16        -0.0054877497
      6   3  16  17        -0.0054877497
      2   6   1   6        -0.0054872952
      6   2   6   1        -0.0054872952
      4   5  14   0        -0.0054864000
      5   4   0  14        -0.0054864000
      3   3  21  21        -0.0054831388
      3   5  12  14        -0.0054827654
      5   3  14  12        -0.0054827654
      2   2  18  18        -0.0054818995
      4   4  13  13        -0.0054778102
      6   7  17  20         0.0054722141
      7   6  20  17         0.0054722141
      2   6  12   4        -0.0054653126
      6   2   4  12        -0.0054653126
      2   6  12  10        -0.0054427416
      6   2  10  12        -0.0054427416
      7   7   5  11         0.0054383509
      7   7  11   5         0.0054383509
      3   7  10  26         0.0054331854
      7   3  26  10         0.0054331854
      3   6   3  23        -0.0054190672
      6   3  23   3        -0.0054190672
      4   5   6   2         0.0054156943
      5   4   2   6         0.0054156943
      6   7   4   0        -0.0054140303
      7   6   0   4        -0.0054140303
      3   3   5  14        -0.0054134827
      3   3  14   5        -0.0054134827
      3   6  14  15        -0.0054128612
      6   3  15  14        -0.0054128612
      6   6  12  12        -0.0054108955
      5   7  16   0         0.0054015107
      7   5   0  16         0.0054015107
      2   4   9   1         0.0053987713
      4   2   1   9         0.0053987713
      6   6  24  24        -0.0053921415
      5   6  12  22        -0.0053846435
      6   5  22  12        -0.0053846435
      4   4  12  12        -0.0053796773
      2   5   0  25        -0.0053755281
      5   2  25   0        -0.0053755281
      3   4   0  16         0.0053678603
      4   3  16   0         0.0053678603
      3   4   9   5         0.0053665804
      4   3   5   9         0.0053665804
      3   6  20  19         0.0053657587
      6   3  19  20         0.0053657587
      2   3  14   3        -0.0053641137
      3   2   3  14        -0.0053641137
      3   7  10   5        -0.0053548089
      7   3   5  10        -0.0053548089
      3   4   4   1        -0.0053532934
      4   3   1   4        -0.0053532934
      3   6  12  23         0.0053455603
      6   3  23  12         0.0053455603
      3   5  20   0         0.0053412447
      5   3   0  20         0.0053412447
      5   5  16  16        -0.0053361509
      3   7  10  14        -0.0053266256
      7   3  14  10        -0.0053266256
      4   6   6   8         0.0053102095
      6   4   8   6         0.0053102095
      6   6   0   6        -0.0053033148
      6   6   6   0        -0.0053033148
      2   3   7  10        -0.0053024371
      3   2  10   7        -0.0053024371
      5   6  11  17        -0.0052996275
      6   5  17  11        -0.0052996275
      2   3   2  13        -0.0052857780
      3   2  13   2        -0.0052857780
      2   3   3  14        -0.0052802924
      3   2  14   3        -0.0052802924
      5   6  16  15         0.0052800316
      6   5  15  16         0.0052800316
      3   6  11   6        -0.0052779690
      6   3   6  11        -0.0052779690
      4   7   4   7        -0.0052734573
      7   4   7   4        -0.0052734573
      5   5   3  16        -0.0052723394
      5   5  16   3        -0.0052723394
      3   3   3  13        -0.0052569917
      3   3  13   3        -0.0052569917
      2   5   5  11         0.0052405557
      5   2  11   5         0.0052405557
      3   6  12  17        -0.0052400309
      6   3  17  12        -0.0052400309
      3   4  12  15        -0.0052362587
      4   3  15  12        -0.0052362587
      4   6   0   9        -0.0052240871
      6   4   9   0        -0.0052240871
      5   6  13   0        -0.0052187917
      6   5   0  13        -0.0052187917
      2   3  18  19        -0.0052175975
      3   2  19  18        -0.0052175975
      4   4  23  23        -0.0052167162
      4   6   2  13        -0.0052090164
      6   4  13   2        -0.0052090164
      4   7  19  26        -0.0051882003
      7   4  26  19        -0.0051882003
      5   7  12  15        -0.0051879393
      7   5  15  12        -0.0051879393
      2   5   3   3         0.0051807770
      5   2   3   3         0.0051807770
      2   4  12  17        -0.0051800011
      4   2  17  12        -0.0051800011
      5   6   9   2        -0.0051638228
      6   5   2   9        -0.0051638228
      3   6   9   1         0.0051621049
      6   3   1   9         0.0051621049
      6   7   3  19        -0.0051618887
      7   6  19   3        -0.0051618887
      4   5   2   0        -0.0051524356
      5   4   0   2        -0.0051524356
      5   6   0  19        -0.0051437316
      6   5  19   0        -0.0051437316
      6   6   5   5        -0.0051404419
      2   3   2   1        -0.0051316925
      3   2   1   2        -0.0051316925
      5   6   2  23         0.0051309298
      6   5  23   2         0.0051309298
      2   5   4  15        -0.0051210602
      5   2  15   4        -0.0051210602
      2   2   5   5        -0.0051189627
      7   7   0  25        -0.0051166090
      7   7  25   0        -0.0051166090
      3   6   2  10        -0.0051133658
      6   3  10   2        -0.0051133658
      2   3  19  18        -0.0051037549
      3   2  18  19        -0.0051037549
      6   7  18  26        -0.0051033707
      7   6  26  18        -0.0051033707
      3   6   3   9         0.0050889344
      6   3   9   3         0.0050889344
      4   6  15   9         0.0050825770
      6   4   9  15         0.0050825770
      5   6   0   3        -0.0050763353
      6   5   3   0        -0.0050763353
      3   5  16   2         0.0050677877
      5   3   2  16         0.0050677877
      6   6  11  14         0.0050662194
      6   6  14  11         0.0050662194
      4   5  11  15        -0.0050661389
      5   4  15  11        -0.0050661389
      4   5  15  21         0.0050605463
      5   4  21  15         0.0050605463
      5   7  24   0        -0.0050589641
      7   5   0  24        -0.0050589641
      5   6   2   7         0.0050583237
      6   5   7   2         0.0050583237
      2   4   9  13         0.0050568174
      4   2  13   9         0.0050568174
      2   4   2   4        -0.0050408925
      4   2   4   2        -0.0050408925
      2   2  17  17        -0.0050404694
      4   5   0   5        -0.0050339087
      5   4   5   0        -0.0050339087
      2   2  19  19        -0.0050167774
      3   4  14  17        -0.0050124969
      4   3  17  14        -0.0050124969
      3   4   9   2         0.0050110304
      4   3   2   9         0.0050110304
      4   6   8   6         0.0050054410
      6   4   6   8         0.0050054410
      6   7  18  11        -0.0050006067
      7   6  11  18        -0.0050006067
      2   3  13   2        -0.0049974871
      3   2   2  13        -0.0049974871
      2   6   1   0        -0.0049962629
      6   2   0   1        -0.0049962629
      5   5   0  15         0.0049769339
      5   5  15   0         0.0049769339
      3   3  23  23        -0.0049636546
      3   6   7  13        -0.0049624594
      6   3  13   7        -0.0049624594
      5   5  11  21         0.0049479982
      5   5  21  11         0.0049479982
      5   7   9   2         0.0049442042
      7   5   2   9         0.0049442042
      2   3   4   9         0.0049345926
      3   2   9   4         0.0049345926
      2   7  16   0        -0.0049263899
      7   2   0  16        -0.0049263899
      2   2   2   2        -0.0049238971
      3   3  22  22        -0.0049230391
      3   3   1   3        -0.0049148494
      3   3   3   1        -0.0049148494
      2   7  11   8        -0.0048911439
      7   2   8  11        -0.0048911439
      2   2  21  21        -0.0048862723
      4   6  17   0         0.0048667856
      6   4   0  17         0.0048667856
      3   5   5   3         0.0048629273
      5   3   3   5         0.0048629273
      3   6  10  18         0.0048624971
      6   3  18  10         0.0048624971
      2   3  14  16        -0.0048548828
      3   2  16  14        -0.0048548828
      4   4  22  22        -0.0048544341
      5   7   9   5         0.0048531312
      7   5   5   9         0.0048531312
      5   6  21  17         0.0048518846
      6   5  17  21         0.0048518846
      4   5  22   2         0.0048468791
      5   4   2  22         0.0048468791
      5   5   1  13        -0.0048452517
      5   5  13   1        -0.0048452517
      3   6  15  11         0.0048412957
      6   3  11  15         0.0048412957
      4   4  24  24        -0.0048384409
      5   6  16   4         0.0048237183
      6   5   4  16         0.0048237183
      4   7   0  20        -0.0048181959
      7   4  20   0        -0.0048181959
      3   3   7   7        -0.0048165233
      5   5   9   9        -0.0048070968
      3   4   3  22        -0.0048051691
      4   3  22   3        -0.0048051691
      3   4  10  19         0.0047878060
      4   3  19  10         0.0047878060
      5   5  27  27        -0.0047678623
      4   6  21  24         0.0047599879
      6   4  24  21         0.0047599879
      2   6  19   0         0.0047590690
      6   2   0  19         0.0047590690
      4   5  18  22         0.0047587178
      5   4  22  18         0.0047587178
      4   7   3   5         0.0047501118
      7   4   5   3         0.0047501118
      2   6  12   0        -0.0047498189
      6   2   0  12        -0.0047498189
      3   5  12  11        -0.0047480691
      5   3  11  12        -0.0047480691
      7   7   3  16        -0.0047387886
      7   7  16   3        -0.0047387886
      4   5   9   3        -0.0047368311
      5   4   3   9        -0.0047368311
      3   3   6   6        -0.0047335056
      7   7   1  13        -0.0047321500
      7   7  13   1        -0.0047321500
      2   5  14  14         0.0047320572
      5   2  14  14         0.0047320572
      4   6  13   2        -0.0047319533
      6   4   2  13        -0.0047319533
      4   5   2  15         0.0047279525
      5   4  15   2         0.0047279525
      3   4  14   9         0.0047258590
      4   3   9  14         0.0047258590
      4   6  16   2        -0.0047204833
      6   4   2  16        -0.0047204833
      3   6  14  22        -0.0047086990
      6   3  22  14        -0.0047086990
      3   5  17   0        -0.0047065714
      5   3   0  17        -0.0047065714
      2   5   7  20         0.0047057690
      5   2  20   7         0.0047057690
      6   6   0  15         0.0046942772
      6   6  15   0         0.0046942772
      4   6   5   1        -0.0046929276
      6   4   1   5        -0.0046929276
      6   6  25  25        -0.0046908818
      3   4  16  15        -0.0046796176
      4   3  15  16        -0.0046796176
      6   6   1  13        -0.0046767941
      6   6  13   1        -0.0046767941
      2   6  10  19         0.0046733716
      6   2  19  10         0.0046733716
      3   6  16  17        -0.0046699496
      6   3  17  16        -0.0046699496
      4   5  23  12        -0.0046691324
      5   4  12  23        -0.0046691324
      2   5  12  35        -0.0046640789
      5   2  35  12        -0.0046640789
      2   5  12  24        -0.0046563217
      5   2  24  12        -0.0046563217
      4   6   8   0         0.0046534543
      6   4   0   8         0.0046534543
      2   7   2   7        -0.0046503389
      7   2   7   2        -0.0046503389
      2   7   4  19         0.0046461412
      7   2  19   4         0.0046461412
      1   1  42  42        -0.0046446222
      0   0  42  42        -0.0046412193
      0   1  42  43        -0.0046401705
      1   0  43  42        -0.0046401705
      0   1  43  42        -0.0046401057
      1   0  42  43        -0.0046401057
      1   1  43  43        -0.0046398621
      4   7   2   3         0.0046395146
      7   4   3   2         0.0046395146
      3   4   9  18         0.0046383583
      4   3  18   9         0.0046383583
      0   0  43  43        -0.0046365399
      2   3  16  14        -0.0046346021
      3   2  14  16        -0.0046346021
      4   5  17  16         0.0046342897
      5   4  16  17         0.0046342897
      4   6   1   5        -0.0046304116
      6   4   5   1        -0.0046304116
      5   5   2   5        -0.0046301892
      5   5   5   2        -0.0046301892
      4   7   3  14         0.0046182268
      7   4  14   3         0.0046182268
      3   6   9  24        -0.0046176837
      6   3  24   9        -0.0046176837
      5   7   8  11         0.0046105923
      7   5  11   8         0.0046105923
      2   5  14   5         0.0046046529
      5   2   5  14         0.0046046529
      3   3   5  11        -0.0045843170
      3   3  11   5        -0.0045843170
      4   6  20   4        -0.0045572562
      6   4   4  20        -0.0045572562
      4   6  24  21         0.0045547248
      6   4  21  24         0.0045547248
      6   7  10   4        -0.0045530527
      7   6   4  10        -0.0045530527
      2   5   3  12        -0.0045489230
      5   2  12   3        -0.0045489230
      6   7  16  19        -0.0045437096
      7   6  19  16        -0.0045437096
      3   6  11  15         0.0045366631
      6   3  15  11         0.0045366631
      6   7   3   3         0.0045312143
      7   6   3   3         0.0045312143
[...]
      7   6  43  27         0.0000013544
      0   1  16  18        -0.0000013451
      1   0  18  16        -0.0000013451
      1   2  13  18         0.0000013443
      2   1  18  13         0.0000013443
      0   0  16  35        -0.0000013307
      0   0  35  16        -0.0000013307
      1   7  11  32         0.0000013196
      7   1  32  11         0.0000013196
      1   4  42  29         0.0000013184
      4   1  29  42         0.0000013184
      4   7  43  36         0.0000013171
      7   4  36  43         0.0000013171
      0   4  23  19        -0.0000012926
      4   0  19  23        -0.0000012926
      5   7  43   4        -0.0000012806
      7   5   4  43        -0.0000012806
      0   5  42  34         0.0000012785
      5   0  34  42         0.0000012785
      1   6  43   8         0.0000012768
      6   1   8  43         0.0000012768
      1   2  23  32         0.0000012686
      2   1  32  23         0.0000012686
      5   7  41   6        -0.0000012683
      7   5   6  41        -0.0000012683
      1   6  30  22        -0.0000012671
      6   1  22  30        -0.0000012671
      6   7  42  11        -0.0000012649
      7   6  11  42        -0.0000012649
      0   4  32   2         0.0000012625
      4   0   2  32         0.0000012625
      0   5  18  42        -0.0000012582
      5   0  42  18        -0.0000012582
      0   6  39  14         0.0000012530
      6   0  14  39         0.0000012530
      1   7  21  38        -0.0000012518
      7   1  38  21        -0.0000012518
      0   2  25   4        -0.0000012420
      2   0   4  25        -0.0000012420
      0   0  18  18        -0.0000012406
      1   4  25  43         0.0000012314
      4   1  43  25         0.0000012314
      0   6  43  22        -0.0000012297
      6   0  22  43        -0.0000012297
      0   6  23  14         0.0000012241
      6   0  14  23         0.0000012241
      0   4  42   0        -0.0000012218
      4   0   0  42        -0.0000012218
      0   5  28  38        -0.0000012203
      5   0  38  28        -0.0000012203
      1   7   4   2         0.0000012148
      7   1   2   4         0.0000012148
      0   6  36   9         0.0000012138
      6   0   9  36         0.0000012138
      4   7  43  26         0.0000012114
      7   4  26  43         0.0000012114
      1   7  18  28         0.0000011942
      7   1  28  18         0.0000011942
      1   5  43  30         0.0000011936
      5   1  30  43         0.0000011936
      1   3   3  35         0.0000011874
      3   1  35   3         0.0000011874
      2   7  43   6        -0.0000011783
      7   2   6  43        -0.0000011783
      1   3  21  18         0.0000011755
      3   1  18  21         0.0000011755
      0   4  28  34         0.0000011646
      4   0  34  28         0.0000011646
      2   3  32  23         0.0000011537
      3   2  23  32         0.0000011537
      4   6  19  42         0.0000011421
      6   4  42  19         0.0000011421
      1   4  19  15        -0.0000011418
      4   1  15  19        -0.0000011418
      0   4   0   2        -0.0000011345
      4   0   2   0        -0.0000011345
      1   1  22  28        -0.0000011301
      1   1  28  22        -0.0000011301
      1   1  18  36        -0.0000011192
      1   1  36  18        -0.0000011192
      6   7   1  43        -0.0000010825
      7   6  43   1        -0.0000010825
      1   4   2   8         0.0000010814
      4   1   8   2         0.0000010814
      0   1  26  19        -0.0000010809
      1   0  19  26        -0.0000010809
      1   5  11  19        -0.0000010790
      5   1  19  11        -0.0000010790
      0   0  18  21         0.0000010617
      0   0  21  18         0.0000010617
      3   3  26  42         0.0000010612
      3   3  42  26         0.0000010612
      5   7  43   0        -0.0000010444
      7   5   0  43        -0.0000010444
      0   6  16   6        -0.0000010278
      6   0   6  16        -0.0000010278
      1   1  30  34        -0.0000010238
      1   1  34  30        -0.0000010238
      0   7  42  20         0.0000010176
      7   0  20  42         0.0000010176
      1   1  18  18        -0.0000010174
      0   6  42   7        -0.0000010143
      6   0   7  42        -0.0000010143
      0   4  42  22         0.0000010067
      4   0  22  42         0.0000010067
      0   4  42   4         0.0000010054
      4   0   4  42         0.0000010054
      0   7  13  15        -0.0000010051
      7   0  15  13        -0.0000010051
      1   6  18  28         0.0000010050
      6   1  28  18         0.0000010050
      0   2  30  36        -0.0000010002
      2   0  36  30        -0.0000010002
      0   7  42   8        -0.0000009971
      7   0   8  42        -0.0000009971
      0   4  43   9        -0.0000009940
      4   0   9  43        -0.0000009940
      0   2  11  30         0.0000009923
      2   0  30  11         0.0000009923
      1   5  30  43         0.0000009882
      5   1  43  30         0.0000009882
      0   3   1  30        -0.0000009865
      3   0  30   1        -0.0000009865
      1   6  30  25        -0.0000009858
      6   1  25  30        -0.0000009858
      0   0  30  34        -0.0000009774
      0   0  34  30        -0.0000009774
      0   7  32   3        -0.0000009570
      7   0   3  32        -0.0000009570
      2   6  25  43        -0.0000009529
      6   2  43  25        -0.0000009529
      2   2  16  37         0.0000009506
      2   2  37  16         0.0000009506
      4   7  36  24         0.0000009388
      7   4  24  36         0.0000009388
      1   4  13  25         0.0000009079
      4   1  25  13         0.0000009079
      1   2  23  15         0.0000009067
      2   1  15  23         0.0000009067
      0   2   3  19         0.0000009029
      2   0  19   3         0.0000009029
      1   2  18  13        -0.0000008728
      2   1  13  18        -0.0000008728
      1   7  20  43         0.0000008689
      7   1  43  20         0.0000008689
      0   6   0  35         0.0000008617
      6   0  35   0         0.0000008617
      1   1   5  30        -0.0000008496
      1   1  30   5        -0.0000008496
      5   7  17  42        -0.0000008433
      7   5  42  17        -0.0000008433
      0   4  42   6        -0.0000008404
      4   0   6  42        -0.0000008404
      0   6  42   8        -0.0000008385
      6   0   8  42        -0.0000008385
      0   4  25  42         0.0000008359
      4   0  42  25         0.0000008359
      1   5  30   1         0.0000008254
      5   1   1  30         0.0000008254
      0   7  30  20         0.0000008224
      7   0  20  30         0.0000008224
      0   4  42  28        -0.0000008199
      4   0  28  42        -0.0000008199
      2   5  42  36         0.0000008157
      5   2  36  42         0.0000008157
      1   3  16  13        -0.0000008117
      3   1  13  16        -0.0000008117
      1   5  19   5         0.0000008095
      5   1   5  19         0.0000008095
      0   0   5  30         0.0000008044
      0   0  30   5         0.0000008044
      5   7  40   7        -0.0000008034
      7   5   7  40        -0.0000008034
      3   3  31  43        -0.0000007994
      3   3  43  31        -0.0000007994
      0   6  43  32        -0.0000007970
      6   0  32  43        -0.0000007970
      1   6  15  14        -0.0000007901
      6   1  14  15        -0.0000007901
      0   3   5  13        -0.0000007876
      3   0  13   5        -0.0000007876
      1   7  43  23         0.0000007852
      7   1  23  43         0.0000007852
      2   5  43   1        -0.0000007836
      5   2   1  43        -0.0000007836
      1   4  42   9        -0.0000007626
      4   1   9  42        -0.0000007626
      2   6  43   4         0.0000007513
      6   2   4  43         0.0000007513
      1   3  11  30        -0.0000007510
      3   1  30  11        -0.0000007510
      0   3  13  18         0.0000007508
      3   0  18  13         0.0000007508
      0   1  19  26        -0.0000007489
      1   0  26  19        -0.0000007489
      1   6  31   8        -0.0000007465
      6   1   8  31        -0.0000007465
      0   6  43  15         0.0000007439
      6   0  15  43         0.0000007439
      0   6  43  10         0.0000007424
      6   0  10  43         0.0000007424
      2   5  43  41        -0.0000007385
      5   2  41  43        -0.0000007385
      1   5  42  19        -0.0000007338
      5   1  19  42        -0.0000007338
      0   1   3  18         0.0000007316
      1   0  18   3         0.0000007316
      4   7  34  43        -0.0000007305
      7   4  43  34        -0.0000007305
      0   4  11  10         0.0000007190
      4   0  10  11         0.0000007190
      0   1  18   3         0.0000007153
      1   0   3  18         0.0000007153
      4   7  36  43        -0.0000007095
      7   4  43  36        -0.0000007095
      1   5  18  12        -0.0000007026
      5   1  12  18        -0.0000007026
      5   7  42  23        -0.0000006997
      7   5  23  42        -0.0000006997
      1   3  14  18         0.0000006941
      3   1  18  14         0.0000006941
      6   7   2  42         0.0000006935
      7   6  42   2         0.0000006935
      1   7  42  28        -0.0000006906
      7   1  28  42        -0.0000006906
      6   7   9  29        -0.0000006854
      7   6  29   9        -0.0000006854
      2   2  31  43        -0.0000006780
      2   2  43  31        -0.0000006780
      1   5  13  18        -0.0000006780
      5   1  18  13        -0.0000006780
      1   6  42   4        -0.0000006688
      6   1   4  42        -0.0000006688
      2   3  30  43        -0.0000006673
      3   2  43  30        -0.0000006673
      7   7  34  42         0.0000006530
      7   7  42  34         0.0000006530
      1   7  43  33         0.0000006445
      7   1  33  43         0.0000006445
      0   4  43  29         0.0000006417
      4   0  29  43         0.0000006417
      0   7  43  10         0.0000006360
      7   0  10  43         0.0000006360
      3   4  17  42        -0.0000006343
      4   3  42  17        -0.0000006343
      0   4  43   7         0.0000006340
      4   0   7  43         0.0000006340
      0   6  21  17        -0.0000006282
      6   0  17  21        -0.0000006282
      5   7  40  33         0.0000006092
      7   5  33  40         0.0000006092
      0   6  43  28        -0.0000006001
      6   0  28  43        -0.0000006001
      0   3  20  15         0.0000005946
      3   0  15  20         0.0000005946
      1   4  25  13         0.0000005866
      4   1  13  25         0.0000005866
      1   5  43  18        -0.0000005852
      5   1  18  43        -0.0000005852
      6   6  14  42         0.0000005644
      6   6  42  14         0.0000005644
      2   3  24  36        -0.0000005637
      3   2  36  24        -0.0000005637
      3   5  42  43         0.0000005630
      5   3  43  42         0.0000005630
      2   7  20  42        -0.0000005547
      7   2  42  20        -0.0000005547
      0   3   5  19        -0.0000005516
      3   0  19   5        -0.0000005516
      3   7  42  32         0.0000005513
      7   3  32  42         0.0000005513
      0   7  23  42        -0.0000005513
      7   0  42  23        -0.0000005513
      0   1  16  30        -0.0000005509
      1   0  30  16        -0.0000005509
      3   7  43   7        -0.0000005445
      7   3   7  43        -0.0000005445
      1   4  42  20        -0.0000005440
      4   1  20  42        -0.0000005440
      1   7  23  43        -0.0000005432
      7   1  43  23        -0.0000005432
      2   4  42  10         0.0000005354
      4   2  10  42         0.0000005354
      1   4  23  30        -0.0000005343
      4   1  30  23        -0.0000005343
      0   3  18  41         0.0000005281
      3   0  41  18         0.0000005281
      4   4  30  42         0.0000005228
      4   4  42  30         0.0000005228
      0   5  43  19        -0.0000005148
      5   0  19  43        -0.0000005148
      3   5  42  19        -0.0000004956
      5   3  19  42        -0.0000004956
      1   5  19  36         0.0000004950
      5   1  36  19         0.0000004950
      0   7  23  14        -0.0000004896
      7   0  14  23        -0.0000004896
      0   5  30  42         0.0000004871
      5   0  42  30         0.0000004871
      5   7  40  39        -0.0000004789
      7   5  39  40        -0.0000004789
      3   5  19  42        -0.0000004779
      5   3  42  19        -0.0000004779
      2   7  37   6         0.0000004773
      7   2   6  37         0.0000004773
      0   5  30  26        -0.0000004735
      5   0  26  30        -0.0000004735
      0   6  43   6        -0.0000004635
      6   0   6  43        -0.0000004635
      2   4  42   4        -0.0000004623
      4   2   4  42        -0.0000004623
      6   7  42   2         0.0000004545
      7   6   2  42         0.0000004545
      2   7  23  42        -0.0000004543
      7   2  42  23        -0.0000004543
      0   4  42  10         0.0000004524
      4   0  10  42         0.0000004524
      2   6  42  29        -0.0000004493
      6   2  29  42        -0.0000004493
      0   4  11   4        -0.0000004415
      4   0   4  11        -0.0000004415
      1   5  43  36        -0.0000004237
      5   1  36  43        -0.0000004237
      4   7  41  42        -0.0000004125
      7   4  42  41        -0.0000004125
      1   7  39  43         0.0000004087
      7   1  43  39         0.0000004087
      1   4   6   3         0.0000004007
      4   1   3   6         0.0000004007
      0   7  15  12         0.0000003927
      7   0  12  15         0.0000003927
      5   6  42  23         0.0000003900
      6   5  23  42         0.0000003900
      0   3  36  35         0.0000003890
      3   0  35  36         0.0000003890
      4   5  42   0         0.0000003885
      5   4   0  42         0.0000003885
      0   4  34  38        -0.0000003833
      4   0  38  34        -0.0000003833
      2   3  24  34        -0.0000003825
      3   2  34  24        -0.0000003825
      0   7  28  35        -0.0000003730
      7   0  35  28        -0.0000003730
      3   6  25   5         0.0000003664
      6   3   5  25         0.0000003664
      0   0  22  28        -0.0000003662
      0   0  28  22        -0.0000003662
      1   1   3  24        -0.0000003650
      1   1  24   3        -0.0000003650
      0   3  16  40         0.0000003625
      3   0  40  16         0.0000003625
      1   1   2  18         0.0000003620
      1   1  18   2         0.0000003620
      5   7  42   8        -0.0000003601
      7   5   8  42        -0.0000003601
      0   5  43  16         0.0000003598
      5   0  16  43         0.0000003598
      0   5  19  43        -0.0000003442
      5   0  43  19        -0.0000003442
      0   5   8  17        -0.0000003254
      5   0  17   8        -0.0000003254
      6   7  42  21         0.0000003205
      7   6  21  42         0.0000003205
      0   2   8  29         0.0000003145
      2   0  29   8         0.0000003145
      0   5  42  18         0.0000002961
      5   0  18  42         0.0000002961
      0   5  21  42         0.0000002890
      5   0  42  21         0.0000002890
      1   5  30  24         0.0000002824
      5   1  24  30         0.0000002824
      2   3  19  42         0.0000002784
      3   2  42  19         0.0000002784
      1   4   1  10         0.0000002753
      4   1  10   1         0.0000002753
      4   7  42  27         0.0000002713
      7   4  27  42         0.0000002713
      1   4  43  10        -0.0000002682
      4   1  10  43        -0.0000002682
      1   4  43   6        -0.0000002673
      4   1   6  43        -0.0000002673
      0   7  39  42         0.0000002643
      7   0  42  39         0.0000002643
      5   7   3  15         0.0000002585
      7   5  15   3         0.0000002585
      1   5  19  42         0.0000002526
      5   1  42  19         0.0000002526
      3   5  18  16         0.0000002411
      5   3  16  18         0.0000002411
      1   2  14   3         0.0000002206
      2   1   3  14         0.0000002206
      0   4  43  20         0.0000002188
      4   0  20  43         0.0000002188
      1   4  23  14        -0.0000002144
      4   1  14  23        -0.0000002144
      4   5   6  42        -0.0000002112
      5   4  42   6        -0.0000002112
      1   3  12  27        -0.0000001997
      3   1  27  12        -0.0000001997
      0   5  22   4        -0.0000001987
      5   0   4  22        -0.0000001987
      1   3   2  18        -0.0000001937
      3   1  18   2        -0.0000001937
      0   6  28  41        -0.0000001884
      6   0  41  28        -0.0000001884
      5   7  11  39        -0.0000001819
      7   5  39  11        -0.0000001819
      1   6  18  38         0.0000001812
      6   1  38  18         0.0000001812
      0   3   3  30        -0.0000001760
      3   0  30   3        -0.0000001760
      1   3   2  14         0.0000001757
      3   1  14   2         0.0000001757
      0   4  43   8         0.0000001670
      4   0   8  43         0.0000001670
      0   7  43  15         0.0000001356
      7   0  15  43         0.0000001356
      3   5  18  12         0.0000001285
      5   3  12  18         0.0000001285
      0   7  43   6        -0.0000001188
      7   0   6  43        -0.0000001188
      2   4  18  38         0.0000001187
      4   2  38  18         0.0000001187
      1   4  19  22        -0.0000001137
      4   1  22  19        -0.0000001137
      2   3  43  18         0.0000001122
      3   2  18  43         0.0000001122
      0   0   2  18         0.0000001114
      0   0  18   2         0.0000001114
      0   1  30  16        -0.0000000962
      1   0  16  30        -0.0000000962
      0   6  42  29        -0.0000000960
      6   0  29  42        -0.0000000960
      0   6  42   9        -0.0000000952
      6   0   9  42        -0.0000000952
      2   4  22  18        -0.0000000906
      4   2  18  22        -0.0000000906
      1   3  39  17        -0.0000000906
      3   1  17  39        -0.0000000906
      0   3  18  35         0.0000000807
      3   0  35  18         0.0000000807
      0   6  30  17        -0.0000000746
      6   0  17  30        -0.0000000746
      5   6  34   9        -0.0000000681
      6   5   9  34        -0.0000000681
      1   6  30   6         0.0000000662
      6   1   6  30         0.0000000662
      1   7  43   7         0.0000000575
      7   1   7  43         0.0000000575
      0   3  32  33        -0.0000000520
      3   0  33  32        -0.0000000520
      0   6  10  35         0.0000000441
      6   0  35  10         0.0000000441
      1   4  43  25         0.0000000397
      4   1  25  43         0.0000000397
      1   4  33   2        -0.0000000139
      4   1   2  33        -0.0000000139
      0   3  18  27         0.0000000123
      3   0  27  18         0.0000000123

    SCF energy       (wfn)                    =  -77.995813178450078
    Reference energy (file100)                =  -77.995813178450121

    Opposite-spin MP2 correlation energy      =   -0.246748634502399
    Same-spin MP2 correlation energy          =   -0.060901280247860
    MP2 correlation energy                    =   -0.307649914750259
      * MP2 total energy                      =  -78.303463093200378

    Opposite-spin CCSD correlation energy     =   -0.285708631449412
    Same-spin CCSD correlation energy         =   -0.054959807938558
    CCSD correlation energy                   =   -0.340668439387971
      * CCSD total energy                     =  -78.336481617838089


*** tstop() called on Berts-MacBook-Pro.local at Wed Dec  6 23:03:10 2017
Module time:
	user time   =     148.12 seconds =       2.47 minutes
	system time =       3.59 seconds =       0.06 minutes
	total time  =        152 seconds =       2.53 minutes
Total time:
	user time   =     203.62 seconds =       3.39 minutes
	system time =       5.35 seconds =       0.09 minutes
	total time  =        210 seconds =       3.50 minutes

*** Psi4 exiting successfully. Buy a developer a beer!
