
    -----------------------------------------------------------------------
          Psi4: An Open-Source Ab Initio Electronic Structure Package
                               Psi4 1.1 release

                         Git: Rev {HEAD} add49b9 


    R. M. Parrish, L. A. Burns, D. G. A. Smith, A. C. Simmonett,
    A. E. DePrince III, E. G. Hohenstein, U. Bozkaya, A. Yu. Sokolov,
    R. Di Remigio, R. M. Richard, J. F. Gonthier, A. M. James,
    H. R. McAlexander, A. Kumar, M. Saitow, X. Wang, B. P. Pritchard,
    P. Verma, H. F. Schaefer III, K. Patkowski, R. A. King, E. F. Valeev,
    F. A. Evangelista, J. M. Turney, T. D. Crawford, and C. D. Sherrill,
    J. Chem. Theory Comput. in press (2017).
    (doi: 10.1021/acs.jctc.7b00174)

    -----------------------------------------------------------------------


    Psi4 started on: Wednesday, 06 December 2017 09:51PM

    Process ID:  11987
    PSIDATADIR: /anaconda3/share/psi4
    Memory:     500.0 MiB
    Threads:    1
    
  ==> Input File <==

--------------------------------------------------------------------------
"""This is a template for psi4 input format."""
import numpy
import sys

from openfermion.config import *
from openfermion.ops._interaction_tensor import (one_body_basis_change,
                                              two_body_basis_change)
from openfermion.hamiltonians import MolecularData
from numpy import array

sys.path.append('/Users/wadejong/Desktop/Quantum-Computing/OpenFermion/OpenFermion-Psi4/openfermionpsi4')
from _psi4_conversion_functions import *

# Set number of threads in PSI4
set_num_threads(8)

# Set memory that job can use in megabytes.
memory 8000 mb

# Initialize molecular data.
_description = 'ethylene_0.78540'
if _description == 'None':
    _description = None
molecule = MolecularData([['C', array([ 0.      ,  0.      ,  0.673055])], ['C', array([ 0.      ,  0.      , -0.673055])], ['H', array([ 0.      ,  0.934981,  1.246807])], ['H', array([ 0.      , -0.934981,  1.246807])], ['H', array([ 0.66113141, -0.66113141, -1.246807  ])], ['H', array([-0.66113141,  0.66113141, -1.246807  ])]],
                         'DZP',
                         1,
                         0,
                         _description,
                          filename='/Users/wadejong/Desktop/QCQCSiddiqi/8_Qubit_Simulation/data/H4-C2_DZP_singlet_ethylene_0.78540')

# Set molecular geometry and symmetry.
molecule mol {
C 0.0 0.0 0.673055
C 0.0 0.0 -0.673055
H 0.0 0.934981 1.246807
H 0.0 -0.934981 1.246807
H 0.6611314053805794 -0.6611314053805794 -1.246807
H -0.6611314053805794 0.6611314053805794 -1.246807
symmetry c1
}
mol.set_multiplicity(1)
mol.set_molecular_charge(0)

# Set reference and guess.
if molecule.multiplicity == 1:
    set reference rhf
    set guess sad
    set sad_frac_occ true
else:
    set reference rohf
    set guess sad
    set sad_frac_occ true

# Set global parameters of calculation.
set globals {
    basis DZP
    freeze_core false
    fail_on_maxiter true
    df_scf_guess false
    guess sad
    sad_frac_occ true
    opdm false
    tpdm false
    soscf true
    scf_type pk
    diis true
    maxiter 1e6
    num_amps_print 1e6
    r_convergence 1e-7
    d_convergence 1e-7
    e_convergence 1e-7
    ints_tolerance EQUALITY_TOLERANCE
    damping_percentage 0
}

# Run self-consistent field (SCF) calculation.
if True:
    try:

        hf_energy, hf_wavefunction = energy('scf', return_wfn=True)
        scf_wfn = hf_wavefunction
        if True:
            print('Hartree-Fock energy for {} ({} electrons) is {}.'.format(
                molecule.name, molecule.n_electrons, hf_energy))
    except:
        if True:
            print('WARNING: SCF calculation failed.')
        else:
            raise
    else:
        # Get orbitals and Fock matrix.
        molecule.hf_energy = hf_energy
        molecule.nuclear_repulsion = mol.nuclear_repulsion_energy()
        molecule.canonical_orbitals = numpy.asarray(hf_wavefunction.Ca())
        molecule.n_orbitals = molecule.canonical_orbitals.shape[0]
        molecule.n_qubits = 2 * molecule.n_orbitals
        molecule.orbital_energies = numpy.asarray(hf_wavefunction.epsilon_a())
        molecule.fock_matrix = numpy.asarray(hf_wavefunction.Fa())

        # Get integrals using MintsHelper.
        mints = MintsHelper(hf_wavefunction.basisset())
        molecule.one_body_integrals = one_body_basis_change(
            numpy.asarray(mints.ao_kinetic()), molecule.canonical_orbitals)
        molecule.one_body_integrals += one_body_basis_change(
            numpy.asarray(mints.ao_potential()), molecule.canonical_orbitals)
        two_body_integrals = numpy.asarray(mints.ao_eri())
        two_body_integrals.reshape((molecule.n_orbitals, molecule.n_orbitals,
                                    molecule.n_orbitals, molecule.n_orbitals))
        two_body_integrals = numpy.einsum('psqr', two_body_integrals)
        two_body_integrals = two_body_basis_change(
            two_body_integrals, molecule.canonical_orbitals)
        molecule.two_body_integrals = two_body_integrals
        molecule.save()


# Perform MP2 energy calculation if there are at least two electrons.
if True:
    try:
        assert molecule.n_electrons > 1
        mp2_energy = energy('mp2',ref_wfn=scf_wfn)
        if True:
            print('MP2 energy for {} ({} electrons) is {}.'.format(
                molecule.name, molecule.n_electrons, mp2_energy))
    except:
        if True:
            print('WARNING: MP2 calculation failed.')
        else:
            raise
    else:
        molecule.mp2_energy = mp2_energy
        molecule.save()


# Perform configuration interaction singles and doubles (CISD) calculation.
if True:
    set qc_module detci
    try:
        cisd_energy, cisd_wavefunction = energy('cisd', ref_wfn=scf_wfn, return_wfn=True)
        if True:
            print('CISD energy for {} ({} electrons) is {}.'.format(
                molecule.name, molecule.n_electrons, cisd_energy))
    except:
        if True:
            print('WARNING: CISD calculation failed.')
        else:
            raise
    else:
        # For the functions below, "a" and "b" refer to "up and "down" spins.
        molecule.cisd_energy = cisd_energy

        # Get 1-RDM from CISD calculation.
        """cisd_one_rdm_a = numpy.array(cisd_wavefunction.get_opdm(
            0, 0, 'A', True)).reshape(molecule.n_orbitals, molecule.n_orbitals)
        cisd_one_rdm_b = numpy.array(cisd_wavefunction.get_opdm(
            0, 0, 'B', True)).reshape(molecule.n_orbitals, molecule.n_orbitals)

        # Get 2-RDM from CISD calculation.
        cisd_two_rdm_aa = numpy.array(cisd_wavefunction.get_tpdm(
            'AA', False)).reshape(molecule.n_orbitals, molecule.n_orbitals,
                                  molecule.n_orbitals, molecule.n_orbitals)
        cisd_two_rdm_ab = numpy.array(cisd_wavefunction.get_tpdm(
            'AB', False)).reshape(molecule.n_orbitals, molecule.n_orbitals,
                                  molecule.n_orbitals, molecule.n_orbitals)
        cisd_two_rdm_bb = numpy.array(cisd_wavefunction.get_tpdm(
            'BB', False)).reshape(molecule.n_orbitals, molecule.n_orbitals,
                                  molecule.n_orbitals, molecule.n_orbitals)

        # Get overall RDMs.
        cisd_one_rdm, cisd_two_rdm = unpack_spatial_rdm(
            cisd_one_rdm_a, cisd_one_rdm_b, cisd_two_rdm_aa,
            cisd_two_rdm_ab, cisd_two_rdm_bb)

        # Store 1-RDM in molecule file, 2-RDM separately in other file.
        molecule.cisd_one_rdm = cisd_one_rdm
        molecule.cisd_two_rdm = cisd_two_rdm
        molecule.save()"""


# Perform exact diagonalization.
if False:
    set qc_module detci
    try:
        fci_energy, fci_wavefunction = energy('fci', ref_wfn=scf_wfn, return_wfn=True)
        if True:
            print('FCI energy for {} ({} electrons) is {}.'.format(
                molecule.name, molecule.n_electrons, fci_energy))
    except:
        if True:
            print('WARNING: FCI calculation failed.')
        else:
            raise
    else:
        # For the functions below, "a" and "b" refer to "up and "down" spins.
        molecule.fci_energy = fci_energy

        # Get 1-RDM from FCI calculation.
        """fci_one_rdm_a = numpy.array(fci_wavefunction.get_opdm(
            0, 0, 'A', True)).reshape(molecule.n_orbitals, molecule.n_orbitals)
        fci_one_rdm_b = numpy.array(fci_wavefunction.get_opdm(
            0, 0, 'B', True)).reshape(molecule.n_orbitals, molecule.n_orbitals)

        # Get 2-RDM from FCI calculation.
        fci_two_rdm_aa = numpy.array(fci_wavefunction.get_tpdm(
            'AA', False)).reshape(molecule.n_orbitals, molecule.n_orbitals,
                                  molecule.n_orbitals, molecule.n_orbitals)
        fci_two_rdm_ab = numpy.array(fci_wavefunction.get_tpdm(
            'AB', False)).reshape(molecule.n_orbitals, molecule.n_orbitals,
                                  molecule.n_orbitals, molecule.n_orbitals)
        fci_two_rdm_bb = numpy.array(fci_wavefunction.get_tpdm(
            'BB', False)).reshape(molecule.n_orbitals, molecule.n_orbitals,
                                  molecule.n_orbitals, molecule.n_orbitals)

        # Get overall RDMs.
        fci_one_rdm, fci_two_rdm = unpack_spatial_rdm(
            fci_one_rdm_a, fci_one_rdm_b,
            fci_two_rdm_aa, fci_two_rdm_ab, fci_two_rdm_bb)

        # Store 1-RDM in molecule file, 2-RDM separately in other file.
        molecule.fci_one_rdm = fci_one_rdm
        molecule.fci_two_rdm = fci_two_rdm
        molecule.save()"""


# Perform coupled cluster singles and doubles (CCSD) calculation.
if True:
    set qc_module ccenergy
    try:
        ccsd_energy = energy('ccsd',ref_wfn=scf_wfn)
        if True:
            print('CCSD energy for {} ({} electrons) is {}.'.format(
                molecule.name, molecule.n_electrons, ccsd_energy))
    except:
        if True:
            print('WARNING: CCSD calculation failed.')
        else:
            raise
    else:
        molecule.ccsd_energy = ccsd_energy

        # Merge CC amplitudes into molecule by parsing
        psi_filename = outfile_name()
        ccsd_amplitudes = parse_psi4_ccsd_amplitudes(
            2 * molecule.n_orbitals,
            molecule.get_n_alpha_electrons(),
            molecule.get_n_beta_electrons(),
            psi_filename)
        molecule.ccsd_amplitudes = ccsd_amplitudes
        molecule.save()
--------------------------------------------------------------------------
  Python driver attempted to set threads to 8.
  Psi4 was compiled without OpenMP, setting threads to 1.

  Memory set to   7.451 GiB by Python driver.

*** tstart() called on Berts-MacBook-Pro.local
*** at Wed Dec  6 21:51:02 2017

   => Loading Basis Set <=

    Name: DZP
    Role: ORBITAL
    Keyword: BASIS
    atoms 1-2 entry C          line    73 file /anaconda3/share/psi4/basis/dzp.gbs 
    atoms 3-6 entry H          line    16 file /anaconda3/share/psi4/basis/dzp.gbs 


         ---------------------------------------------------------
                                   SCF
            by Justin Turney, Rob Parrish, and Andy Simmonett
                              RHF Reference
                        1 Threads,   7629 MiB Core
         ---------------------------------------------------------

  ==> Geometry <==

    Molecular point group: c1
    Full point group: D2

    Geometry (in Angstrom), charge = 0, multiplicity = 1:

       Center              X                  Y                   Z               Mass       
    ------------   -----------------  -----------------  -----------------  -----------------
           C          0.000000000000     0.000000000000     0.673055000000    12.000000000000
           C          0.000000000000     0.000000000000    -0.673055000000    12.000000000000
           H          0.357801738276     0.863809809187     1.246807000000     1.007825032070
           H         -0.357801738276    -0.863809809187     1.246807000000     1.007825032070
           H          0.357801738276    -0.863809809187    -1.246807000000     1.007825032070
           H         -0.357801738276     0.863809809187    -1.246807000000     1.007825032070

  Running in c1 symmetry.

  Rotational constants: A =      4.78350  B =      0.95484  C =      0.83674 [cm^-1]
  Rotational constants: A = 143405.72603  B =  28625.36612  C =  25084.74647 [MHz]
  Nuclear repulsion =   32.999777843680370

  Charge       = 0
  Multiplicity = 1
  Electrons    = 16
  Nalpha       = 8
  Nbeta        = 8

  ==> Algorithm <==

  SCF Algorithm Type is PK.
  DIIS enabled.
  MOM disabled.
  Fractional occupation disabled.
  Guess Type is SAD.
  Energy threshold   = 1.00e-07
  Density threshold  = 1.00e-07
  Integral threshold = 0.00e+00

  ==> Primary Basis <==

  Basis Set: DZP
    Blend: DZP
    Number of shells: 26
    Number of basis function: 52
    Number of Cartesian functions: 52
    Spherical Harmonics?: false
    Max angular momentum: 2

  ==> Pre-Iterations <==

   -------------------------------------------------------
    Irrep   Nso     Nmo     Nalpha   Nbeta   Ndocc  Nsocc
   -------------------------------------------------------
     A         52      52       0       0       0       0
   -------------------------------------------------------
    Total      52      52       8       8       8       0
   -------------------------------------------------------

  ==> Integral Setup <==

  Using in-core PK algorithm.
   Calculation information:
      Number of atoms:                   6
      Number of AO shells:              26
      Number of primitives:             50
      Number of atomic orbitals:        52
      Number of basis functions:        52

      Integral cutoff                 1.00e-12
      Number of threads:                 1

  Performing in-core PK
  Using 1900262 doubles for integral storage.
  We computed 61765 shell quartets total.
  Whereas there are 61776 unique shell quartets.
  ==> DiskJK: Disk-Based J/K Matrices <==

    J tasked:                  Yes
    K tasked:                  Yes
    wK tasked:                  No
    Memory (MB):              5722
    Schwarz Cutoff:          1E-12

    OpenMP threads:              1
  Minimum eigenvalue in the overlap matrix is 8.5421422007E-03.
  Using Symmetric Orthogonalization.

  SCF Guess: Superposition of Atomic Densities via on-the-fly atomic UHF.

  ==> Iterations <==

                        Total Energy        Delta E     RMS |[F,P]|

   @RHF iter   0:   -69.16303629175385   -6.91630e+01   1.01494e-01 
   @RHF iter   1:   -74.27492144362157   -5.11189e+00   4.00494e-02 
   @RHF iter   2:   -77.14846665382335   -2.87355e+00   2.42095e-02 DIIS/DAMP
   @RHF iter   3:   -77.99299282237705   -8.44526e-01   2.39976e-03 DIIS/DAMP
   @RHF iter   4:   -78.00439300696178   -1.14002e-02   4.08197e-04 SOSCF, nmicro = 4/DAMP
   @RHF iter   5:   -78.00495906074708   -5.66054e-04   2.11466e-06 SOSCF, nmicro = 4/DAMP
   @RHF iter   6:   -78.00495907156497   -1.08179e-08   2.39081e-09 SOSCF, conv/DAMP

  ==> Post-Iterations <==

    Orbital Energies (a.u.)
    -----------------------

    Doubly Occupied:                                                      

       1A    -11.246445     2A    -11.244910     3A     -1.028398  
       4A     -0.788951     5A     -0.626011     6A     -0.583575  
       7A     -0.534589     8A     -0.331743  

    Virtual:                                                              

       9A      0.114126    10A      0.257420    11A      0.305659  
      12A      0.355430    13A      0.382658    14A      0.412599  
      15A      0.448051    16A      0.468269    17A      0.479622  
      18A      0.584335    19A      0.601538    20A      0.676890  
      21A      0.820861    22A      1.014663    23A      1.210438  
      24A      1.228702    25A      1.306982    26A      1.450409  
      27A      1.592464    28A      1.594320    29A      1.681103  
      30A      1.958583    31A      2.029562    32A      2.073990  
      33A      2.097761    34A      2.150270    35A      2.155530  
      36A      2.453774    37A      2.459755    38A      2.479663  
      39A      2.689917    40A      2.725642    41A      2.831959  
      42A      2.917904    43A      2.935578    44A      3.195884  
      45A      3.436841    46A      3.502351    47A      3.533962  
      48A      3.825432    49A      4.234977    50A      4.515908  
      51A     27.632701    52A     27.657377  

    Final Occupation by Irrep:
              A 
    DOCC [     8 ]

  Energy converged.

  @RHF Final Energy:   -78.00495907156497

   => Energetics <=

    Nuclear Repulsion Energy =             32.9997778436803699
    One-Electron Energy =                -169.2402294239455500
    Two-Electron Energy =                  58.2354925087002258
    DFT Exchange-Correlation Energy =       0.0000000000000000
    Empirical Dispersion Energy =           0.0000000000000000
    PCM Polarization Energy =               0.0000000000000000
    EFP Energy =                            0.0000000000000000
    Total Energy =                        -78.0049590715649686



Properties will be evaluated at   0.000000,   0.000000,   0.000000 Bohr

Properties computed using the SCF density matrix

  Nuclear Dipole Moment: (a.u.)
     X:     0.0000      Y:     0.0000      Z:     0.0000

  Electronic Dipole Moment: (a.u.)
     X:     0.0000      Y:     0.0000      Z:    -0.0000

  Dipole Moment: (a.u.)
     X:     0.0000      Y:     0.0000      Z:    -0.0000     Total:     0.0000

  Dipole Moment: (Debye)
     X:     0.0000      Y:     0.0000      Z:    -0.0000     Total:     0.0000


*** tstop() called on Berts-MacBook-Pro.local at Wed Dec  6 21:51:03 2017
Module time:
	user time   =       0.40 seconds =       0.01 minutes
	system time =       0.15 seconds =       0.00 minutes
	total time  =          1 seconds =       0.02 minutes
Total time:
	user time   =       0.40 seconds =       0.01 minutes
	system time =       0.15 seconds =       0.00 minutes
	total time  =          1 seconds =       0.02 minutes

*** tstart() called on Berts-MacBook-Pro.local
*** at Wed Dec  6 21:51:07 2017


  //>>>>>>>>>>>>>>>>>>>>>>>>>>>>>>>>>>>//
  //               DFMP2               //
  //<<<<<<<<<<<<<<<<<<<<<<<<<<<<<<<<<<<//

   => Loading Basis Set <=

    Name: (DZP AUX)
    Role: RIFIT
    Keyword: DF_BASIS_MP2
    atoms 1-2 entry C          line   269 file /anaconda3/share/psi4/basis/def2-qzvpp-ri.gbs 
    atoms 3-6 entry H          line    23 file /anaconda3/share/psi4/basis/def2-qzvpp-ri.gbs 

	 --------------------------------------------------------
	                          DF-MP2                         
	      2nd-Order Density-Fitted Moller-Plesset Theory     
	              RMP2 Wavefunction,   1 Threads             
	                                                         
	        Rob Parrish, Justin Turney, Andy Simmonett,      
	           Ed Hohenstein, and C. David Sherrill          
	 --------------------------------------------------------

   => Auxiliary Basis Set <=

  Basis Set: (DZP AUX)
    Blend: DEF2-QZVPP-RI
    Number of shells: 130
    Number of basis function: 506
    Number of Cartesian functions: 666
    Spherical Harmonics?: true
    Max angular momentum: 5

	 --------------------------------------------------------
	                 NBF =    52, NAUX =   506
	 --------------------------------------------------------
	   CLASS    FOCC     OCC    AOCC    AVIR     VIR    FVIR
	   PAIRS       0       8       8      44      44       0
	 --------------------------------------------------------

	-----------------------------------------------------------
	 ==================> DF-MP2 Energies <==================== 
	-----------------------------------------------------------
	 Reference Energy          =     -78.0049590715649686 [Eh]
	 Singles Energy            =      -0.0000000000000000 [Eh]
	 Same-Spin Energy          =      -0.0608015189553066 [Eh]
	 Opposite-Spin Energy      =      -0.2461817662546316 [Eh]
	 Correlation Energy        =      -0.3069832852099382 [Eh]
	 Total Energy              =     -78.3119423567749067 [Eh]
	-----------------------------------------------------------
	 ================> DF-SCS-MP2 Energies <================== 
	-----------------------------------------------------------
	 SCS Same-Spin Scale       =       0.3333333333333333 [-]
	 SCS Opposite-Spin Scale   =       1.2000000000000000 [-]
	 SCS Same-Spin Energy      =      -0.0202671729851022 [Eh]
	 SCS Opposite-Spin Energy  =      -0.2954181195055579 [Eh]
	 SCS Correlation Energy    =      -0.3156852924906601 [Eh]
	 SCS Total Energy          =     -78.3206443640556245 [Eh]
	-----------------------------------------------------------


*** tstop() called on Berts-MacBook-Pro.local at Wed Dec  6 21:51:07 2017
Module time:
	user time   =       0.29 seconds =       0.00 minutes
	system time =       0.04 seconds =       0.00 minutes
	total time  =          0 seconds =       0.00 minutes
Total time:
	user time   =       4.59 seconds =       0.08 minutes
	system time =       0.34 seconds =       0.01 minutes
	total time  =          5 seconds =       0.08 minutes
 MINTS: Wrapper to libmints.
   by Justin Turney

   Calculation information:
      Number of threads:                 1
      Number of atoms:                   6
      Number of AO shells:              26
      Number of SO shells:              26
      Number of primitives:             50
      Number of atomic orbitals:        52
      Number of basis functions:        52

      Number of irreps:                  1
      Integral cutoff                 0.00e+00
      Number of functions per irrep: [  52 ]

 OEINTS: Overlap, kinetic, potential, dipole, and quadrupole integrals
         stored in file 35.

      Computing two-electron integrals...done
      Computed 840605 non-zero two-electron integrals.
        Stored in file 33.


         ---------------------------------------------------------
                          Configuration Interaction
                            (a 'D E T C I' module)

                 C. David Sherrill, Daniel G. A. Smith, and
                              Matt L. Leininger
         ---------------------------------------------------------


   ==> Parameters <==

    EX LEVEL       =        2      H0 BLOCKSIZE  =     1000
    VAL EX LEVEL   =        0      H0 GUESS SIZE =     1000
    H0COUPLINGSIZE =        0      H0 COUPLING   =       NO
    MAXITER        =       24      NUM PRINT     =       20
    NUM ROOTS      =        1      ICORE         =        1
    PRINT LVL      =        1      FCI           =       NO
    R CONV         = 1.00e-07      MIXED         =      YES
    E CONV         = 1.00e-07      MIXED4        =      YES
    R4S            =       NO      REPL OTF      =       NO
    DIAG METHOD    =      SEM      FOLLOW ROOT   =        0
    PRECONDITIONER = DAVIDSON      UPDATE        = DAVIDSON
    S              =   0.0000      Ms0           =      YES
    GUESS VECTOR   =  H0BLOCK      OPENTYPE      =     NONE
    COLLAPSE SIZE  =        1      HD AVG        = EVANGELISTI
    MAX NUM VECS   =       25      REF SYM       =     AUTO
    IOPEN        =       NO

    EX ALLOW       =  1  1 
    STATE AVERAGE  =  0(1.00) 

   ==> CI Orbital and Space information <==

    RAS1 LVL      =        7      A RAS3 MAX    =        2
    RAS1 MIN      =       14      B RAS3 MAX    =        2
    A RAS1 LVL    =        7      RAS4 LVL      =       52
    A RAS1 MIN    =        6      A RAS4 MAX    =        0
    A RAS1 MAX    =        8      B RAS4 MAX    =        0
    B RAS1 LVL    =        7      RAS4 MAX      =        0
    B RAS1 MIN    =        6      A RAS34 MAX   =        2
    B RAS1 MAX    =        8      B RAS34 MAX   =        2
    RAS3 LVL      =        8      RAS34 MAX     =        2
    RAS3 MAX      =        2
   ------------------------------------
               Space    Total     A
   ------------------------------------
                 Nso       52    52
                 Nmo       52    52
               Ndocc        8     8
               Nsocc        0     0
   ------------------------------------
              CI Spaces
   ------------------------------------
        Dropped DOCC        0     0
                RAS1        8     8
                RAS2        0     0
                RAS3       44    44
                RAS4        0     0
      Active (total)       52    52
        Dropped UOCC        0     0
   ------------------------------------

   ==> Setting up CI strings <==

    There are 26841 alpha and 26841 beta strings
    The CI space requires 177585 (1.78E+05) determinants and 6 blocks

   ==> Transforming CI integrals <==

	Presorting SO-basis two-electron integrals.
	Sorting File: SO Ints (nn|nn) nbuckets = 1
	Transforming the one-electron integrals and constructing Fock matrices
	Starting first half-transformation.
	Sorting half-transformed integrals.
	First half integral transformation complete.
	Starting second half-transformation.
	Two-electron integral transformation complete.

   ==> Starting CI iterations <==

    H0 Block Eigenvalue = -78.04324767

    Simultaneous Expansion Method (Block Davidson Method)
    Using 1 initial trial vectors

     Iter   Root       Total Energy       Delta E      C RMS

   @CI  0:     0    -78.043247668124   -1.1104E+02   1.5266E+00  
   @CI  1:     0    -78.302599884039   -2.5935E-01   1.5539E-01  
   @CI  2:     0    -78.314258687737   -1.1659E-02   5.1035E-02  
   @CI  3:     0    -78.315323496901   -1.0648E-03   1.3742E-02  
   @CI  4:     0    -78.315397467072   -7.3970E-05   4.0433E-03  
   @CI  5:     0    -78.315402823506   -5.3564E-06   1.0538E-03  
   @CI  6:     0    -78.315403199470   -3.7596E-07   2.9546E-04  
   @CI  7:     0    -78.315403227944   -2.8474E-08   8.2301E-05  
   @CI  8:     0    -78.315403229973   -2.0286E-09   1.9647E-05  
   @CI  9:     0    -78.315403230091   -1.1798E-10   4.8586E-06  
   @CI 10:     0    -78.315403230097   -6.2670E-12   9.6748E-07  
    Warning: Norm of correction (root 0) is < 1.0E-13
   @CI 11:     0    -78.315403230097   -3.6948E-13   2.1624E-07  
    Warning: Norm of correction (root 0) is < 1.0E-13
   @CI 12:     0    -78.315403230097   2.8422E-14   4.6523E-08 c

   ==> Energetics <==

    SCF energy =            0.000000000000000
    Total CI energy =     -78.315403230097274

   ==> CISD root 0 information <==

    CISD Root 0 energy =   -78.315403230097274

   The 20 most important determinants:

    *   1   -0.949251  (    0,    0)  1AX 2AX 3AX 4AX 5AX 6AX 7AX 8AX 
    *   2    0.096172  (    1,    1)  1AX 2AX 3AX 4AX 5AX 6AX 7AX 9AX 
    *   3    0.040230  (    1,   81)  1AX 2AX 3AX 4AX 5AX 6AX 7AX 9AA 19AB 
    *   4    0.040230  (   81,    1)  1AX 2AX 3AX 4AX 5AX 6AX 7AX 9AB 19AA 
    *   5    0.027087  (   99,   99)  1AX 2AX 3AX 4AX 5AX 7AX 8AX 21AX 
    *   6   -0.026199  (    1,    2)  1AX 2AX 3AX 4AX 5AX 6AX 7AA 8AB 9AX 
    *   7   -0.026199  (    2,    1)  1AX 2AX 3AX 4AX 5AX 6AX 7AB 8AA 9AX 
    *   8    0.023721  (   81,   81)  1AX 2AX 3AX 4AX 5AX 6AX 7AX 19AX 
    *   9    0.022989  (    1,   99)  1AX 2AX 3AX 4AX 5AX 6AA 7AX 8AB 9AA 21AB 
    *  10    0.022989  (   99,    1)  1AX 2AX 3AX 4AX 5AX 6AB 7AX 8AA 9AB 21AA 
    *  11    0.019253  (   36,   36)  1AX 2AX 3AX 4AX 6AX 7AX 8AX 13AX 
    *  12    0.018898  (    0, 2202)  1AX 2AX 3AX 4AX 5AX 6AA 7AX 8AA 9AB 21AB 
    *  13    0.018898  ( 2202,    0)  1AX 2AX 3AX 4AX 5AX 6AB 7AX 8AB 9AA 21AA 
    *  14    0.018855  (    5,    5)  1AX 2AX 3AX 5AX 6AX 7AX 8AX 9AX 
    *  15    0.018597  (    2,    2)  1AX 2AX 3AX 4AX 5AX 6AX 8AX 9AX 
    *  16    0.018018  (   43,   43)  1AX 2AX 3AX 4AX 5AX 7AX 8AX 14AX 
    *  17    0.017926  (   81,   99)  1AX 2AX 3AX 4AX 5AX 6AA 7AX 8AB 19AA 21AB 
    *  18    0.017926  (   99,   81)  1AX 2AX 3AX 4AX 5AX 6AB 7AX 8AA 19AB 21AA 
    *  19    0.015547  (   34,   34)  1AX 2AX 3AX 4AX 5AX 6AX 8AX 13AX 
    *  20    0.015243  (   58,   58)  1AX 2AX 3AX 4AX 5AX 6AX 8AX 16AX 

		 "A good bug is a dead bug" 

			 - Starship Troopers

		 "I didn't write FORTRAN.  That's the problem."

			 - Edward Valeev
 MINTS: Wrapper to libmints.
   by Justin Turney

   Calculation information:
      Number of threads:                 1
      Number of atoms:                   6
      Number of AO shells:              26
      Number of SO shells:              26
      Number of primitives:             50
      Number of atomic orbitals:        52
      Number of basis functions:        52

      Number of irreps:                  1
      Integral cutoff                 0.00e+00
      Number of functions per irrep: [  52 ]

 OEINTS: Overlap, kinetic, potential, dipole, and quadrupole integrals
         stored in file 35.

      Computing two-electron integrals...done
      Computed 840605 non-zero two-electron integrals.
        Stored in file 33.


*** tstart() called on Berts-MacBook-Pro.local
*** at Wed Dec  6 21:51:59 2017


	Wfn Parameters:
	--------------------
	Wavefunction         = CCSD
	Number of irreps     = 1
	Number of MOs        = 52
	Number of active MOs = 52
	AO-Basis             = NONE
	Semicanonical        = false
	Reference            = RHF
	Print Level          = 1

	IRREP	# MOs	# FZDC	# DOCC	# SOCC	# VIRT	# FZVR
	-----	-----	------	------	------	------	------
	 A	   52	    0	    8	    0	    44	    0
	Transforming integrals...
	IWL integrals will be deleted.
	(OO|OO)...
	Presorting SO-basis two-electron integrals.
	Sorting File: SO Ints (nn|nn) nbuckets = 1
	Transforming the one-electron integrals and constructing Fock matrices
	Starting first half-transformation.
	Sorting half-transformed integrals.
	First half integral transformation complete.
	Starting second half-transformation.
	Two-electron integral transformation complete.
	(OO|OV)...
	Starting second half-transformation.
	Two-electron integral transformation complete.
	(OO|VV)...
	Starting second half-transformation.
	Two-electron integral transformation complete.
	(OV|OO)...
	Starting first half-transformation.
	Sorting half-transformed integrals.
	First half integral transformation complete.
	Starting second half-transformation.
	Two-electron integral transformation complete.
	(OV|OV)...
	Starting second half-transformation.
	Two-electron integral transformation complete.
	(OV|VV)...
	Starting second half-transformation.
	Two-electron integral transformation complete.
	(VV|OO)...
	Starting first half-transformation.
	Sorting half-transformed integrals.
	First half integral transformation complete.
	Starting second half-transformation.
	Two-electron integral transformation complete.
	(VV|OV)...
	Starting second half-transformation.
	Two-electron integral transformation complete.
	(VV|VV)...
	Starting second half-transformation.
	Two-electron integral transformation complete.
	Frozen core energy     =      0.00000000000000

	Size of irrep 0 of <ab|cd> integrals:      3.748 (MW) /     29.985 (MB)
	Total:                                     3.748 (MW) /     29.985 (MB)

	Size of irrep 0 of <ia|bc> integrals:      0.681 (MW) /      5.452 (MB)
	Total:                                     0.681 (MW) /      5.452 (MB)

	Size of irrep 0 of tijab amplitudes:       0.124 (MW) /      0.991 (MB)
	Total:                                     0.124 (MW) /      0.991 (MB)

	Nuclear Rep. energy          =     32.99977784368037
	SCF energy                   =    -78.00495907156497
	One-electron energy          =   -169.24022949047577
	Two-electron energy          =     58.23549257523052
	Reference energy             =    -78.00495907156488

*** tstop() called on Berts-MacBook-Pro.local at Wed Dec  6 21:51:59 2017
Module time:
	user time   =       0.29 seconds =       0.00 minutes
	system time =       0.30 seconds =       0.00 minutes
	total time  =          0 seconds =       0.00 minutes
Total time:
	user time   =      55.81 seconds =       0.93 minutes
	system time =       1.18 seconds =       0.02 minutes
	total time  =         57 seconds =       0.95 minutes

*** tstart() called on Berts-MacBook-Pro.local
*** at Wed Dec  6 21:51:59 2017

            **************************
            *                        *
            *        CCENERGY        *
            *                        *
            **************************

    Nuclear Rep. energy (wfn)     =   32.999777843680370
    SCF energy          (wfn)     =  -78.004959071564969
    Reference energy    (file100) =  -78.004959071564883

    Input parameters:
    -----------------
    Wave function   =     CCSD
    Reference wfn   =     RHF
    Brueckner       =     No
    Memory (Mbytes) =     8000.0
    Maxiter         =   1000000
    R_Convergence   =     1.0e-07
    E_Convergence   =     1.0e-07
    Restart         =     Yes
    DIIS            =     Yes
    AO Basis        =     NONE
    ABCD            =     NEW
    Cache Level     =     2
    Cache Type      =     LOW
    Print Level     =     1
    Num. of threads =     1
    # Amps to Print =     1000000
    Print MP2 Amps? =     No
    Analyze T2 Amps =     No
    Print Pair Ener =     No
    Local CC        =     No
    SCS-MP2         =     False
    SCSN-MP2        =     False
    SCS-CCSD        =     False

MP2 correlation energy -0.3069913162287777
                Solving CC Amplitude Equations
                ------------------------------
  Iter             Energy              RMS        T1Diag      D1Diag    New D1Diag    D2Diag
  ----     ---------------------    ---------   ----------  ----------  ----------   --------
     0        -0.306991316228778    0.000e+00    0.000000    0.000000    0.000000    0.163091
     1        -0.327209941262372    5.683e-02    0.006995    0.024975    0.024975    0.182478
     2        -0.337901127702821    2.593e-02    0.008802    0.032267    0.032267    0.205583
     3        -0.339415362951400    1.023e-02    0.010136    0.037671    0.037671    0.217254
     4        -0.339530964658273    3.853e-03    0.010330    0.038668    0.038668    0.222791
     5        -0.339558425488771    8.864e-04    0.010317    0.038659    0.038659    0.223592
     6        -0.339554315322600    2.538e-04    0.010303    0.038613    0.038613    0.223617
     7        -0.339553786342478    8.779e-05    0.010299    0.038596    0.038596    0.223629
     8        -0.339553578486365    2.418e-05    0.010298    0.038595    0.038595    0.223628
     9        -0.339553412701752    6.330e-06    0.010298    0.038595    0.038595    0.223627
    10        -0.339553614012179    1.902e-06    0.010298    0.038595    0.038595    0.223627
    11        -0.339553616534636    5.474e-07    0.010298    0.038596    0.038596    0.223627
    12        -0.339553631731777    1.319e-07    0.010298    0.038596    0.038596    0.223627
    13        -0.339553630106789    3.783e-08    0.010298    0.038596    0.038596    0.223627

    Iterations converged.


    Largest TIA Amplitudes:
              7   7         0.0260913500
              7   9         0.0211089715
              7   8         0.0131695596
              7  20         0.0090108600
              6   9         0.0063474789
              6   7         0.0054148957
              4   4         0.0053994231
              7  17        -0.0047270224
              7  29         0.0043646045
              3  13         0.0043456781
              5  21         0.0043278938
              5   5         0.0039235160
              4  22        -0.0032266776
              3  24         0.0031967172
              6  33         0.0029977376
              2  40         0.0026276589
              2   2        -0.0026126026
              2  25        -0.0025760286
              4  15         0.0025351714
              2  21         0.0023990856
              5  34        -0.0022769298
              3  41         0.0018590415
              3  28        -0.0017774782
              5  19         0.0017752714
              6  17        -0.0017432785
              7  33        -0.0016528017
              4  38         0.0016256655
              6  20         0.0016087080
              6  23        -0.0016036299
              4  32         0.0015921045
              4  10        -0.0015676590
              2   5         0.0015230633
              3  35         0.0015176506
              7  23         0.0014608851
              2  11         0.0012896004
              3  37         0.0012638655
              5  14        -0.0011780735
              4   0        -0.0011768492
              5   2        -0.0011552125
              3  31        -0.0011030787
              5  36        -0.0010648539
              3   1        -0.0010093814
              2  30        -0.0009902697
              2  36         0.0009896749
              5  11        -0.0009791335
              4  27         0.0009199109
              3  12         0.0008591666
              7  39         0.0008524877
              6  39         0.0008448661
              2  14         0.0008175496
              4  26         0.0007357887
              1  13        -0.0005634459
              5  40         0.0004967449
              0  40        -0.0004566278
              5  25         0.0004476673
              3  16         0.0004197901
              3   3         0.0003845591
              1  41        -0.0003788976
              1   1        -0.0003290523
              0  11        -0.0003217284
              2  34        -0.0003155185
              0  14        -0.0002965820
              1  12        -0.0002565732
              3  18        -0.0002548769
              0   2        -0.0002532218
              4   6         0.0002440170
              1  35        -0.0002264120
              0  36        -0.0001693919
              1   3        -0.0001678180
              6   8         0.0001577129
              1  37        -0.0001476777
              0   5        -0.0001431581
              2  42         0.0001215434
              6  29         0.0001169002
              1  28        -0.0001162924
              1  24        -0.0001139533
              0  21        -0.0001127039
              1  43         0.0000971047
              0  42         0.0000965530
              3  43         0.0000909164
              5  30         0.0000894013
              1  16        -0.0000614563
              0  34        -0.0000436155
              1  31        -0.0000194157
              5  42         0.0000177908
              0  25         0.0000145301
              1  18        -0.0000093695
              0  19         0.0000035092
              0  30         0.0000021131
              2  19         0.0000009362

    Largest TIjAb Amplitudes:
      7   7   0   0        -0.1482186129
      7   7   0  10        -0.0557169461
      7   7  10   0        -0.0557169461
      6   7   0   0        -0.0345115962
      7   6   0   0        -0.0345115962
      5   5  12  12        -0.0312742593
      7   7  10  10        -0.0282352442
      5   7  12   0        -0.0265056561
      7   5   0  12        -0.0265056561
      4   4   4   4        -0.0233620163
      6   6   0   0        -0.0232442350
      3   3   0   0        -0.0219786628
      5   5   5   5        -0.0216922113
      5   7  12  10        -0.0208074165
      7   5  10  12        -0.0208074165
      6   6   4   4        -0.0196727840
      6   7   0  10        -0.0187904363
      7   6  10   0        -0.0187904363
      6   6   7   7        -0.0182165029
      3   7   2   0        -0.0181434193
      7   3   0   2        -0.0181434193
      6   7   0   4        -0.0176012410
      7   6   4   0        -0.0176012410
      6   6   3   3        -0.0173186600
      2   7  12   0        -0.0170147452
      7   2   0  12        -0.0170147452
      4   6   4   9         0.0167586951
      6   4   9   4         0.0167586951
      6   7  10   0        -0.0167581697
      7   6   0  10        -0.0167581697
      2   7   0  12        -0.0167430045
      7   2  12   0        -0.0167430045
      3   7   0   2        -0.0163341645
      7   3   2   0        -0.0163341645
      7   7  11  11        -0.0162229291
      2   7   1   0        -0.0161590552
      7   2   0   1        -0.0161590552
      4   5   4   5         0.0158472207
      5   4   5   4         0.0158472207
      4   6   2   3        -0.0155623220
      6   4   3   2        -0.0155623220
      4   4   2   2        -0.0154729403
      5   5   4   4        -0.0153422708
      5   6   5   7         0.0151129127
      6   5   7   5         0.0151129127
      4   4   6   6        -0.0149083133
      2   7   0   3        -0.0148043390
      7   2   3   0        -0.0148043390
      2   2  12  12        -0.0146257783
      4   6   4   7        -0.0146178440
      6   4   7   4        -0.0146178440
      4   7   9   0         0.0144497570
      7   4   0   9         0.0144497570
      7   7   8   8        -0.0140051545
      4   6   6   7        -0.0139922370
      6   4   7   6        -0.0139922370
      3   5   1   5         0.0137741497
      5   3   5   1         0.0137741497
      2   7   0   1        -0.0135902249
      7   2   1   0        -0.0135902249
      5   6   4   3         0.0135009661
      6   5   3   4         0.0135009661
      4   4   9   9        -0.0132132319
      7   7   9   9        -0.0131539797
      3   7   0  11         0.0131067957
      7   3  11   0         0.0131067957
      3   5   2  12        -0.0128972450
      5   3  12   2        -0.0128972450
      5   5   0   0        -0.0127948663
      3   3  12  12        -0.0127160426
      5   7   5   8         0.0125722362
      7   5   8   5         0.0125722362
      2   7   1  10        -0.0125657463
      7   2  10   1        -0.0125657463
      4   6   9   4         0.0125569479
      6   4   4   9         0.0125569479
      6   6   2   2        -0.0125072329
      7   7   0   6         0.0123812802
      7   7   6   0         0.0123812802
      4   7   0   9         0.0123558479
      7   4   9   0         0.0123558479
      2   7  12  10        -0.0123363050
      7   2  10  12        -0.0123363050
      2   7  13  10        -0.0123160009
      7   2  10  13        -0.0123160009
      3   6   0  19         0.0123143930
      6   3  19   0         0.0123143930
      3   7   0   5        -0.0122948494
      7   3   5   0        -0.0122948494
      4   4   3   3        -0.0122537244
      5   6  12   0        -0.0122511203
      6   5   0  12        -0.0122511203
      2   5  13  12        -0.0122430073
      5   2  12  13        -0.0122430073
      2   7   3   0        -0.0122359123
      7   2   0   3        -0.0122359123
      7   7   4   4        -0.0122213048
      3   6   1   7        -0.0121064888
      6   3   7   1        -0.0121064888
      6   7  10  10        -0.0120462471
      7   6  10  10        -0.0120462471
      3   3   2   2        -0.0120427061
      3   4   1   4        -0.0120023909
      4   3   4   1        -0.0120023909
      6   7   6   0        -0.0118812842
      7   6   0   6        -0.0118812842
      5   7   5   9         0.0118652026
      7   5   9   5         0.0118652026
      6   6   9   9        -0.0118643433
      5   6  12   6        -0.0117668144
      6   5   6  12        -0.0117668144
      2   7  13   0        -0.0117488112
      7   2   0  13        -0.0117488112
      4   7   4   8        -0.0117143268
      7   4   8   4        -0.0117143268
      4   6   3   2        -0.0116541018
      6   4   2   3        -0.0116541018
      2   2   0   0        -0.0115990612
      3   7   5   0        -0.0115650296
      7   3   0   5        -0.0115650296
      3   3   1   1        -0.0115176003
      4   5   6   5         0.0114145877
      5   4   5   6         0.0114145877
      3   7   0  14        -0.0113789454
      7   3  14   0        -0.0113789454
      5   6   5   9        -0.0113425530
      6   5   9   5        -0.0113425530
      7   7  12  12        -0.0113088003
      6   7   7   8        -0.0111817191
      7   6   8   7        -0.0111817191
      4   6   4  17        -0.0111142863
      6   4  17   4        -0.0111142863
      6   6   7   9         0.0110111596
      6   6   9   7         0.0110111596
      6   6  14  14        -0.0109694136
      4   7   9  10         0.0109690309
      7   4  10   9         0.0109690309
      5   5   2   2        -0.0109424303
      4   7   6   9        -0.0108003734
      7   4   9   6        -0.0108003734
      3   7   2  10        -0.0107786084
      7   3  10   2        -0.0107786084
      3   4   0  18         0.0107737542
      4   3  18   0         0.0107737542
      5   5  20  20        -0.0107164463
      5   7   0   3         0.0107038467
      7   5   3   0         0.0107038467
      6   7   7   9        -0.0106177416
      7   6   9   7        -0.0106177416
      3   3  14  14        -0.0105566327
      4   5   2   4         0.0105154060
      5   4   4   2         0.0105154060
      4   7   4   9        -0.0105069993
      7   4   9   4        -0.0105069993
      4   7   6   8        -0.0104197812
      7   4   8   6        -0.0104197812
      3   3   5   5        -0.0104142663
      4   4   4  15        -0.0102983725
      4   4  15   4        -0.0102983725
      6   6  16  16        -0.0102899227
      5   5  15  15        -0.0102627933
      3   5  13   5         0.0101907676
      5   3   5  13         0.0101907676
      4   4   0   0        -0.0101685427
      3   5   0  20         0.0101615152
      5   3  20   0         0.0101615152
      3   7   5  10        -0.0101157115
      7   3  10   5        -0.0101157115
      4   6  14   3        -0.0100960743
      6   4   3  14        -0.0100960743
      3   4  13   4        -0.0100735830
      4   3   4  13        -0.0100735830
      4   4  15  15        -0.0099062188
      3   3   3   3        -0.0099035995
      2   5   1  12        -0.0098797706
      5   2  12   1        -0.0098797706
      3   7   1   9        -0.0098780528
      7   3   9   1        -0.0098780528
      6   7   4   4         0.0098764233
      7   6   4   4         0.0098764233
      3   6   1   9         0.0098706434
      6   3   9   1         0.0098706434
      3   5   3   2         0.0098687885
      5   3   2   3         0.0098687885
      6   6  19  19        -0.0098677544
      3   7   1   8        -0.0098532569
      7   3   8   1        -0.0098532569
      4   4  18  18        -0.0098386776
      5   7   3   0         0.0098203634
      7   5   0   3         0.0098203634
      6   7   7   7        -0.0097049308
      7   6   7   7        -0.0097049308
      3   5   2   3         0.0096782366
      5   3   3   2         0.0096782366
      3   6  13   7        -0.0096695941
      6   3   7  13        -0.0096695941
      4   4  14  14        -0.0096644806
      3   7   0  25         0.0096256994
      7   3  25   0         0.0096256994
      6   7   6  10        -0.0096093658
      7   6  10   6        -0.0096093658
      3   5  12   2        -0.0095627519
      5   3   2  12        -0.0095627519
      4   7   7   0        -0.0095475609
      7   4   0   7        -0.0095475609
      4   4  19  19        -0.0095257949
      3   5   5  12        -0.0094929527
      5   3  12   5        -0.0094929527
      5   5   4  15        -0.0094503551
      5   5  15   4        -0.0094503551
      4   6  18  19        -0.0094188741
      6   4  19  18        -0.0094188741
      4   6   3  14        -0.0094177691
      6   4  14   3        -0.0094177691
      2   7   0  16        -0.0094142490
      7   2  16   0        -0.0094142490
      4   6  15  17        -0.0093669574
      6   4  17  15        -0.0093669574
      6   6  17  17        -0.0093319101
      3   7  14   0        -0.0093197753
      7   3   0  14        -0.0093197753
      4   6  14  16        -0.0093128487
      6   4  16  14        -0.0093128487
      2   2  13  13        -0.0092197716
      2   2   4   4        -0.0092049944
      4   5   7  12        -0.0091910674
      5   4  12   7        -0.0091910674
      6   6  15  15        -0.0091749790
      4   6  16  14        -0.0091722994
      6   4  14  16        -0.0091722994
      2   4   0  19         0.0091711123
      4   2  19   0         0.0091711123
      6   6   6   6        -0.0091077411
      5   6  12  10        -0.0090862766
      6   5  10  12        -0.0090862766
      4   5   9  12         0.0090836027
      5   4  12   9         0.0090836027
      7   7   3   3        -0.0090508846
      3   3   2  14        -0.0090443141
      3   3  14   2        -0.0090443141
      2   5  11   5         0.0089935431
      5   2   5  11         0.0089935431
      2   5  12  12        -0.0089840357
      5   2  12  12        -0.0089840357
      7   7   8   9        -0.0089676060
      7   7   9   8        -0.0089676060
      7   7   6  10         0.0089381271
      7   7  10   6         0.0089381271
      4   4   0   4         0.0088773629
      4   4   4   0         0.0088773629
      3   4   1   6        -0.0088310347
      4   3   6   1        -0.0088310347
      3   5  11  12        -0.0088172838
      5   3  12  11        -0.0088172838
      5   6  15  16         0.0087539917
      6   5  16  15         0.0087539917
      4   4  16  16        -0.0087486213
      4   6  17   4        -0.0087410110
      6   4   4  17        -0.0087410110
      2   7  10  12        -0.0087403745
      7   2  12  10        -0.0087403745
      3   3   0  10        -0.0087253806
      3   3  10   0        -0.0087253806
      6   6  18  18        -0.0086874227
      4   4   4   6        -0.0086421255
      4   4   6   4        -0.0086421255
      5   6   4  16         0.0086296869
      6   5  16   4         0.0086296869
      4   4   7   9         0.0086132663
      4   4   9   7         0.0086132663
      6   7   9   9         0.0086079544
      7   6   9   9         0.0086079544
      6   6   3  16        -0.0085623567
      6   6  16   3        -0.0085623567
      4   7   7  10        -0.0085544596
      7   4  10   7        -0.0085544596
      5   5   3   3        -0.0085537864
      4   6   7   6        -0.0084969240
      6   4   6   7        -0.0084969240
      7   7   1   1        -0.0084869410
      2   2   0  10        -0.0084476407
      2   2  10   0        -0.0084476407
      3   4   5   9         0.0084378665
      4   3   9   5         0.0084378665
      2   2  12  13        -0.0084249622
      2   2  13  12        -0.0084249622
      6   6   4  15        -0.0083477839
      6   6  15   4        -0.0083477839
      2   4  13   9         0.0082861212
      4   2   9  13         0.0082861212
      4   5  14   4         0.0082810246
      5   4   4  14         0.0082810246
      7   7   7   7        -0.0082770369
      7   7  18  18        -0.0082391736
      2   6  11   7        -0.0082221884
      6   2   7  11        -0.0082221884
      2   4  11   6        -0.0082203307
      4   2   6  11        -0.0082203307
      4   7   4  20         0.0081973532
      7   4  20   4         0.0081973532
      4   4   7   7        -0.0081747943
      3   3   4   4        -0.0080568454
      3   6   4   2        -0.0080518076
      6   3   2   4        -0.0080518076
      3   4   0   3         0.0080461406
      4   3   3   0         0.0080461406
      4   6   7   4        -0.0080350033
      6   4   4   7        -0.0080350033
      6   6   2  14        -0.0080024601
      6   6  14   2        -0.0080024601
      2   2  10  10        -0.0079886986
      5   7   5   7         0.0079830501
      7   5   7   5         0.0079830501
      3   3  13  13        -0.0079782224
      6   7   9   8         0.0079768611
      7   6   8   9         0.0079768611
      4   4   2  14        -0.0079740778
      4   4  14   2        -0.0079740778
      2   7  10   1        -0.0079628142
      7   2   1  10        -0.0079628142
      3   6   5   4        -0.0079298253
      6   3   4   5        -0.0079298253
      5   5   3  12         0.0078859092
      5   5  12   3         0.0078859092
      3   3   1  13        -0.0078712499
      3   3  13   1        -0.0078712499
      3   5   3  14         0.0078376125
      5   3  14   3         0.0078376125
      4   5  18  20        -0.0078085760
      5   4  20  18        -0.0078085760
      4   5   4  21         0.0077694920
      5   4  21   4         0.0077694920
      5   5   1   1        -0.0077618450
      4   4  17  17        -0.0077404885
      3   5  14   3         0.0077333123
      5   3   3  14         0.0077333123
      6   6   0  10        -0.0077205737
      6   6  10   0        -0.0077205737
      2   2  11  11        -0.0077155789
      3   7  13   8        -0.0077016439
      7   3   8  13        -0.0077016439
      3   3   9   9        -0.0076763945
      5   5  21  21        -0.0076748190
      6   7   0  15        -0.0076589392
      7   6  15   0        -0.0076589392
      3   5   5   1         0.0076255305
      5   3   1   5         0.0076255305
      4   6  17  15        -0.0076134062
      6   4  15  17        -0.0076134062
      7   7  20  20        -0.0076020599
      2   6   0  18         0.0075951875
      6   2  18   0         0.0075951875
      4   6   6   9         0.0075386113
      6   4   9   6         0.0075386113
      5   7   4  18         0.0075309994
      7   5  18   4         0.0075309994
      5   5  14  14        -0.0075144163
      3   6  13   9         0.0075050802
      6   3   9  13         0.0075050802
      2   4   1   9         0.0074938818
      4   2   9   1         0.0074938818
      3   3  16  16        -0.0074855006
      5   6  20  19        -0.0074819511
      6   5  19  20        -0.0074819511
      3   7   3   9        -0.0074356149
      7   3   9   3        -0.0074356149
      3   6  15  14        -0.0074326586
      6   3  14  15        -0.0074326586
      7   7   0   4        -0.0074296390
      7   7   4   0        -0.0074296390
      5   7  12   6         0.0074149612
      7   5   6  12         0.0074149612
      5   6  15   3         0.0074085441
      6   5   3  15         0.0074085441
      4   6  19  18        -0.0073992400
      6   4  18  19        -0.0073992400
      3   7  13   9        -0.0073191202
      7   3   9  13        -0.0073191202
      3   4  13   6        -0.0073152236
      4   3   6  13        -0.0073152236
      2   5   2   5         0.0072993360
      5   2   5   2         0.0072993360
      4   5  14  15         0.0072882680
      5   4  15  14         0.0072882680
      6   6  10  10        -0.0072562072
      4   6   9   6         0.0072042975
      6   4   6   9         0.0072042975
      2   6   2   7        -0.0072014965
      6   2   7   2        -0.0072014965
      3   3   2   5        -0.0071903850
      3   3   5   2        -0.0071903850
      7   7   7   8        -0.0071631763
      7   7   8   7        -0.0071631763
      2   4   2   6        -0.0071509092
      4   2   6   2        -0.0071509092
      4   5   8  12         0.0071376504
      5   4  12   8         0.0071376504
      3   5   0  17        -0.0071245097
      5   3  17   0        -0.0071245097
      3   7  10   2        -0.0071229122
      7   3   2  10        -0.0071229122
      6   7  22   0        -0.0071169697
      7   6   0  22        -0.0071169697
      5   5   2  14        -0.0071141199
      5   5  14   2        -0.0071141199
      2   6  13   4        -0.0070925606
      6   2   4  13        -0.0070925606
      3   5   3   5         0.0070737813
      5   3   5   3         0.0070737813
      6   6   1   1        -0.0070641745
      2   7   0  13        -0.0070068554
      7   2  13   0        -0.0070068554
      3   5  14  16         0.0069793286
      5   3  16  14         0.0069793286
      5   5  17  17        -0.0069354902
      2   5  12  13        -0.0069350144
      5   2  13  12        -0.0069350144
      5   7   0  16         0.0069218182
      7   5  16   0         0.0069218182
      3   6   4  14        -0.0069191757
      6   3  14   4        -0.0069191757
      6   6  11  11        -0.0069071763
      5   6   1   4         0.0069038363
      6   5   4   1         0.0069038363
      7   7   2   2        -0.0069020046
      2   2   4  15        -0.0068916919
      2   2  15   4        -0.0068916919
      4   5  16  17         0.0068897704
      5   4  17  16         0.0068897704
      5   7  13   0        -0.0068844168
      7   5   0  13        -0.0068844168
      3   5  14  12        -0.0068802709
      5   3  12  14        -0.0068802709
      2   2  15  15        -0.0068533354
      2   4  12   9         0.0068459326
      4   2   9  12         0.0068459326
      5   7  15  18         0.0068146490
      7   5  18  15         0.0068146490
      5   5  11  11        -0.0068043675
      3   5  16  14         0.0067933553
      5   3  14  16         0.0067933553
      4   4   3  16        -0.0067611632
      4   4  16   3        -0.0067611632
      3   4   4   3        -0.0067250636
      4   3   3   4        -0.0067250636
      3   6  19   0         0.0067152306
      6   3   0  19         0.0067152306
      7   7   1  12        -0.0066925125
      7   7  12   1        -0.0066925125
      2   2  20  20        -0.0066408921
      3   5   0   9         0.0066374702
      5   3   9   0         0.0066374702
      4   5   3   9        -0.0066298340
      5   4   9   3        -0.0066298340
      2   3   2   3        -0.0066273926
      3   2   3   2        -0.0066273926
      3   3  10  10        -0.0066068108
      2   2   1  13        -0.0065585194
      2   2  13   1        -0.0065585194
      5   6  17  14         0.0065421429
      6   5  14  17         0.0065421429
      3   6   3   7        -0.0065031870
      6   3   7   3        -0.0065031870
      7   7  25  25        -0.0064899010
      3   6   2   6        -0.0064795683
      6   3   6   2        -0.0064795683
      2   7  10  13        -0.0064570245
      7   2  13  10        -0.0064570245
      3   7  12  20         0.0064364103
      7   3  20  12         0.0064364103
      3   5   0   8        -0.0064119554
      5   3   8   0        -0.0064119554
      2   5  12  28        -0.0063661026
      5   2  28  12        -0.0063661026
      3   3   3  16        -0.0063657898
      3   3  16   3        -0.0063657898
      6   6   4  10        -0.0063641154
      6   6  10   4        -0.0063641154
      3   3  19  19        -0.0063486278
      2   6   4   1        -0.0063428744
      6   2   1   4        -0.0063428744
      2   7  10   3        -0.0063360483
      7   2   3  10        -0.0063360483
      3   4   5   7        -0.0063322974
      4   3   7   5        -0.0063322974
      6   6   6  10        -0.0063233881
      6   6  10   6        -0.0063233881
      3   4  15  16        -0.0063158013
      4   3  16  15        -0.0063158013
      4   7   6   7        -0.0062938172
      7   4   7   6        -0.0062938172
      2   2   7   7        -0.0062888531
      3   4   2   9         0.0062884960
      4   3   9   2         0.0062884960
      3   3  18  18        -0.0062760665
      2   4  13   7        -0.0062675090
      4   2   7  13        -0.0062675090
      4   7   8  10         0.0062582930
      7   4  10   8         0.0062582930
      3   7   9   3        -0.0062418375
      7   3   3   9        -0.0062418375
      3   7  14  10        -0.0062409748
      7   3  10  14        -0.0062409748
      3   3  20  20        -0.0062360083
      3   4   3   4        -0.0062356644
      4   3   4   3        -0.0062356644
      3   4   4  13        -0.0062317474
      4   3  13   4        -0.0062317474
      3   3  15  15        -0.0062316872
      4   7   3  11        -0.0062265066
      7   4  11   3        -0.0062265066
      6   7   4  10        -0.0062167210
      7   6  10   4        -0.0062167210
      4   7   8   0         0.0062126834
      7   4   0   8         0.0062126834
      4   4   9  17         0.0062060958
      4   4  17   9         0.0062060958
      2   2   1  12        -0.0062026612
      2   2  12   1        -0.0062026612
      2   7  11   9        -0.0062010745
      7   2   9  11        -0.0062010745
      3   6  14   4        -0.0061976396
      6   3   4  14        -0.0061976396
      2   3   0   9        -0.0061915944
      3   2   9   0        -0.0061915944
      2   7   3  10        -0.0061912681
      7   2  10   3        -0.0061912681
      3   6   4   5        -0.0061815659
      6   3   5   4        -0.0061815659
      2   6   4  12        -0.0061612732
      6   2  12   4        -0.0061612732
      2   7   2   9        -0.0061529289
      7   2   9   2        -0.0061529289
      5   5   5  21        -0.0061524876
      5   5  21   5        -0.0061524876
      5   7   0  12        -0.0061402795
      7   5  12   0        -0.0061402795
      4   7  15  20         0.0061384999
      7   4  20  15         0.0061384999
      4   5  15  11        -0.0061229318
      5   4  11  15        -0.0061229318
      3   3  17  17        -0.0061220785
      2   6   4  13        -0.0060975549
      6   2  13   4        -0.0060975549
      2   7  11   8        -0.0060818592
      7   2   8  11        -0.0060818592
      7   7   5   5        -0.0060731402
      5   6   3   4         0.0060709095
      6   5   4   3         0.0060709095
      4   7   9   4        -0.0060696087
      7   4   4   9        -0.0060696087
      3   6   5   6        -0.0060682446
      6   3   6   5        -0.0060682446
      7   7   1   3        -0.0060557689
      7   7   3   1        -0.0060557689
      4   6   7  10        -0.0060491171
      6   4  10   7        -0.0060491171
      5   7  20  25        -0.0060327096
      7   5  25  20        -0.0060327096
      2   6  13  10        -0.0060253516
      6   2  10  13        -0.0060253516
      3   4  17  14        -0.0060163533
      4   3  14  17        -0.0060163533
      7   7  19  19        -0.0060143628
      5   7   2   9         0.0060004351
      7   5   9   2         0.0060004351
      3   4  18   0         0.0059944441
      4   3   0  18         0.0059944441
      2   6  13   6        -0.0059899072
      6   2   6  13        -0.0059899072
      6   6  23  23        -0.0059865648
      2   3   1   5        -0.0059825634
      3   2   5   1        -0.0059825634
      3   3  11  11        -0.0059662976
      7   7  13  13        -0.0059612051
      3   5  12  21         0.0059566847
      5   3  21  12         0.0059566847
      2   2   1   1        -0.0059564262
      3   4   3   6        -0.0059437303
      4   3   6   3        -0.0059437303
      2   7  11   7        -0.0059428887
      7   2   7  11        -0.0059428887
      7   7   7   9        -0.0059413674
      7   7   9   7        -0.0059413674
      3   6   2  22        -0.0059177815
      6   3  22   2        -0.0059177815
      4   7   3   2         0.0058943601
      7   4   2   3         0.0058943601
      2   6   1  10        -0.0058835994
      6   2  10   1        -0.0058835994
      4   6  16  11         0.0058763457
      6   4  11  16         0.0058763457
      4   6   2  16        -0.0058380662
      6   4  16   2        -0.0058380662
      6   6  21  21        -0.0058137085
      6   6   9  17         0.0058091804
      6   6  17   9         0.0058091804
      3   6   7   1        -0.0058039841
      6   3   1   7        -0.0058039841
      4   4  21  21        -0.0058027408
      4   5   3  17         0.0057882479
      5   4  17   3         0.0057882479
      2   5   2   2         0.0057838394
      5   2   2   2         0.0057838394
      4   6  11  16         0.0057741155
      6   4  16  11         0.0057741155
      5   5  22  22        -0.0057706274
      3   6  21   4        -0.0057631658
      6   3   4  21        -0.0057631658
      6   6  13  13        -0.0057477405
      3   7  11  10        -0.0057414430
      7   3  10  11        -0.0057414430
      2   3   3   2        -0.0057386577
      3   2   2   3        -0.0057386577
      3   4   2  23        -0.0057208312
      4   3  23   2        -0.0057208312
      3   3   3  12         0.0057167718
      3   3  12   3         0.0057167718
      5   7  21  20        -0.0057153636
      7   5  20  21        -0.0057153636
      2   4   1   7        -0.0057120036
      4   2   7   1        -0.0057120036
      3   7   9   1        -0.0057066001
      7   3   1   9        -0.0057066001
      3   5  10  20         0.0057065541
      5   3  20  10         0.0057065541
      2   6   1   4        -0.0056968639
      6   2   4   1        -0.0056968639
      5   7  10  12        -0.0056907954
      7   5  12  10        -0.0056907954
      4   4   1   1        -0.0056883912
      3   4   2   7        -0.0056865584
      4   3   7   2        -0.0056865584
      7   7   3  12        -0.0056740355
      7   7  12   3        -0.0056740355
      7   7   5  11         0.0056483290
      7   7  11   5         0.0056483290
      2   6   1   6        -0.0056391460
      6   2   6   1        -0.0056391460
      4   4  11  11        -0.0056357563
      4   7  19  12         0.0056205807
      7   4  12  19         0.0056205807
      2   5   0  26        -0.0056150390
      5   2  26   0        -0.0056150390
      6   6   3  13        -0.0056094028
      6   6  13   3        -0.0056094028
      5   6  12  22        -0.0055797675
      6   5  22  12        -0.0055797675
      3   6   5  10        -0.0055759442
      6   3  10   5        -0.0055759442
      7   7   0  15        -0.0055533499
      7   7  15   0        -0.0055533499
      2   4  19   0         0.0055466437
      4   2   0  19         0.0055466437
      3   5  20   0         0.0055446663
      5   3   0  20         0.0055446663
      3   6  17  16        -0.0055377204
      6   3  16  17        -0.0055377204
      4   5   6   2         0.0055350456
      5   4   2   6         0.0055350456
      2   5  28  12        -0.0055320758
      5   2  12  28        -0.0055320758
      3   5   2  16         0.0055235810
      5   3  16   2         0.0055235810
      3   7  10  25         0.0055198973
      7   3  25  10         0.0055198973
      5   5  13  13        -0.0055184450
      3   6   2   4        -0.0055155929
      6   3   4   2        -0.0055155929
      3   6   3  23        -0.0055108731
      6   3  23   3        -0.0055108731
      2   3  13   5        -0.0054961360
      3   2   5  13        -0.0054961360
      2   6  12   4        -0.0054933252
      6   2   4  12        -0.0054933252
      2   7   0  24        -0.0054788633
      7   2  24   0        -0.0054788633
      3   6  14  15        -0.0054754961
      6   3  15  14        -0.0054754961
      3   6   3   9         0.0054714307
      6   3   9   3         0.0054714307
      2   5   0  22        -0.0054702822
      5   2  22   0        -0.0054702822
      3   3  21  21        -0.0054617662
      3   6  11   6        -0.0054509711
      6   3   6  11        -0.0054509711
      5   7   1   4        -0.0054480026
      7   5   4   1        -0.0054480026
      3   6  20  18         0.0054475218
      6   3  18  20         0.0054475218
      3   7  10   5        -0.0054396962
      7   3   5  10        -0.0054396962
      3   5  12  14        -0.0054240056
      5   3  14  12        -0.0054240056
      2   2   9   9        -0.0054118359
      5   5   0   4         0.0054078588
      5   5   4   0         0.0054078588
      2   7  24   0        -0.0054049411
      7   2   0  24        -0.0054049411
      2   3  14   3        -0.0054001514
      3   2   3  14        -0.0054001514
      4   4  13  13        -0.0053973998
      4   7   0  17        -0.0053963212
      7   4  17   0        -0.0053963212
      6   6  24  24        -0.0053903137
      3   6  12  23         0.0053875378
      6   3  23  12         0.0053875378
      6   6  12  12        -0.0053869053
      3   3   5  14        -0.0053720024
      3   3  14   5        -0.0053720024
      4   4  12  12        -0.0053719655
      6   7  17  20         0.0053711750
      7   6  20  17         0.0053711750
      4   7  19  18         0.0053640417
      7   4  18  19         0.0053640417
      3   6   9   1         0.0053586009
      6   3   1   9         0.0053586009
      3   7  10  14        -0.0053576108
      7   3  14  10        -0.0053576108
      2   4   9   1         0.0053573754
      4   2   1   9         0.0053573754
      4   7   9   6        -0.0053520515
      7   4   6   9        -0.0053520515
      2   7   2   8        -0.0053499801
      7   2   8   2        -0.0053499801
      2   2  19  19        -0.0053395596
      5   5  16  16        -0.0053313971
      3   4   9   5         0.0053171135
      4   3   5   9         0.0053171135
      5   6  16  15         0.0053155127
      6   5  15  16         0.0053155127
      7   7   6   6        -0.0053130962
      5   6   2   7         0.0053107176
      6   5   7   2         0.0053107176
      3   4   4   1        -0.0053055325
      4   3   1   4        -0.0053055325
      2   5   5  11         0.0052990243
      5   2  11   5         0.0052990243
      4   6  15   9         0.0052985729
      6   4   9  15         0.0052985729
      5   6   9   2        -0.0052932059
      6   5   2   9        -0.0052932059
      4   7  18  25        -0.0052923280
      7   4  25  18        -0.0052923280
      5   5   3  16        -0.0052922976
      5   5  16   3        -0.0052922976
      2   3   3  14        -0.0052858066
      3   2  14   3        -0.0052858066
      4   6   9  10         0.0052836010
      6   4  10   9         0.0052836010
      3   4  12  15        -0.0052749529
      4   3  15  12        -0.0052749529
      3   3   3  13        -0.0052647075
      3   3  13   3        -0.0052647075
      2   4  12  17        -0.0052597220
      4   2  17  12        -0.0052597220
      4   6   2  13        -0.0052275701
      6   4  13   2        -0.0052275701
      2   5   3   3         0.0052273869
      5   2   3   3         0.0052273869
      3   6  12  17        -0.0052248793
      6   3  17  12        -0.0052248793
      7   7   0  26        -0.0052239105
      7   7  26   0        -0.0052239105
      4   6   0  17         0.0052231372
      6   4  17   0         0.0052231372
      5   7  16   0         0.0052202682
      7   5   0  16         0.0052202682
      5   6  11  17        -0.0052198385
      6   5  17  11        -0.0052198385
      4   4  23  23        -0.0052176932
      2   3   2  13        -0.0052119404
      3   2  13   2        -0.0052119404
      2   6  12  10        -0.0052101554
      6   2  10  12        -0.0052101554
      5   6   0  18        -0.0052052101
      6   5  18   0        -0.0052052101
      5   6   2  23         0.0052001068
      6   5  23   2         0.0052001068
      4   4   0  15         0.0051918022
      4   4  15   0         0.0051918022
      2   2  18  18        -0.0051777493
      2   5   4  15        -0.0051730825
      5   2  15   4        -0.0051730825
      6   6   5   5        -0.0051729834
      6   6   0   6        -0.0051630508
      6   6   6   0        -0.0051630508
      2   3  19  18        -0.0051618547
      3   2  18  19        -0.0051618547
      4   5  14   0        -0.0051590954
      5   4   0  14        -0.0051590954
      6   6  11  14         0.0051578227
      6   6  14  11         0.0051578227
      2   3  18  19        -0.0051507850
      3   2  19  18        -0.0051507850
      6   7   3  18        -0.0051500641
      7   6  18   3        -0.0051500641
      4   6   0   9        -0.0051334936
      6   4   9   0        -0.0051334936
      3   7  13   7        -0.0051259504
      7   3   7  13        -0.0051259504
      6   7  19  25        -0.0051228814
      7   6  25  19        -0.0051228814
      2   2   5   5        -0.0051205306
      2   3   2   1        -0.0050915530
      3   2   1   2        -0.0050915530
      3   5  16   2         0.0050836479
      5   3   2  16         0.0050836479
      4   5  11  15        -0.0050689957
      5   4  15  11        -0.0050689957
      3   7   1   7        -0.0050618519
      7   3   7   1        -0.0050618519
      2   4   9  13         0.0050208176
      4   2  13   9         0.0050208176
      5   7  24   0        -0.0050177659
      7   5   0  24        -0.0050177659
      3   4   3  22        -0.0050175474
      4   3  22   3        -0.0050175474
      3   4  14  17        -0.0050135672
      4   3  17  14        -0.0050135672
      4   5  15  21         0.0050089135
      5   4  21  15         0.0050089135
      4   5  22   2         0.0050072362
      5   4   2  22         0.0050072362
      3   4   9   2         0.0049955093
      4   3   2   9         0.0049955093
      2   3   7  10        -0.0049876723
      3   2  10   7        -0.0049876723
      2   3   4   9         0.0049837711
      3   2   9   4         0.0049837711
      6   7  19  11        -0.0049770394
      7   6  11  19        -0.0049770394
      3   3   1   3        -0.0049765246
      3   3   3   1        -0.0049765246
      3   3  23  23        -0.0049752080
      2   3  13   2        -0.0049581744
      3   2   2  13        -0.0049581744
      5   6  16   4         0.0049518593
      6   5   4  16         0.0049518593
      4   4  22  22        -0.0049474413
      5   6  13   0        -0.0049466586
      6   5   0  13        -0.0049466586
      3   3  22  22        -0.0049396289
      5   5   9   9        -0.0049196213
      3   3   7   7        -0.0049182266
      2   2   2   2        -0.0049140868
      3   6   2  10        -0.0048982072
      6   3  10   2        -0.0048982072
      5   7  12  15        -0.0048958138
      7   5  15  12        -0.0048958138
      2   4   2   4        -0.0048958036
      4   2   4   2        -0.0048958036
      5   5  11  21         0.0048948377
      5   5  21  11         0.0048948377
      3   4   0  16         0.0048923618
      4   3  16   0         0.0048923618
      2   3  14  16        -0.0048879273
      3   2  16  14        -0.0048879273
      3   5   5   3         0.0048837866
      5   3   3   5         0.0048837866
      3   4  10  18         0.0048800454
      4   3  18  10         0.0048800454
      2   2  21  21        -0.0048798614
      2   2  17  17        -0.0048769600
      3   6  14  22        -0.0048732788
      6   3  22  14        -0.0048732788
      5   7   9   2         0.0048610066
      7   5   2   9         0.0048610066
      4   6  21  24         0.0048573389
      6   4  24  21         0.0048573389
      4   5   2   0        -0.0048517500
      5   4   0   2        -0.0048517500
      4   5   2  15         0.0048491046
      5   4  15   2         0.0048491046
      3   6  15  11         0.0048468048
      6   3  11  15         0.0048468048
      3   5  12  11        -0.0048467481
      5   3  11  12        -0.0048467481
      2   6  18   0         0.0048380007
      6   2   0  18         0.0048380007
      2   5  12  24        -0.0048315094
      5   2  24  12        -0.0048315094
      3   6  10  19         0.0048293445
      6   3  19  10         0.0048293445
      5   5   1  13        -0.0048203628
      5   5  13   1        -0.0048203628
      4   6  16   2        -0.0048147589
      6   4   2  16        -0.0048147589
      3   6   7  13        -0.0048139430
      6   3  13   7        -0.0048139430
      2   7   4  18         0.0048118663
      7   2  18   4         0.0048118663
      4   5   9   3        -0.0048026655
      5   4   3   9        -0.0048026655
      5   6  21  17         0.0047905835
      6   5  17  21         0.0047905835
      6   7  10   4        -0.0047890233
      7   6   4  10        -0.0047890233
      2   6   1   0        -0.0047819275
      6   2   0   1        -0.0047819275
      4   4  24  24        -0.0047797830
      3   3   6   6        -0.0047673586
      5   6   0   3        -0.0047606805
      6   5   3   0        -0.0047606805
      2   7  16   0        -0.0047549064
      7   2   0  16        -0.0047549064
      3   4  14   9         0.0047527050
      4   3   9  14         0.0047527050
      2   5  14  14         0.0047497671
      5   2  14  14         0.0047497671
      3   6  16  17        -0.0047417642
      6   3  17  16        -0.0047417642
      4   6   5   1        -0.0047299687
      6   4   1   5        -0.0047299687
      2   4   4  21        -0.0047196019
      4   2  21   4        -0.0047196019
      4   5   0   5        -0.0047185845
      5   4   5   0        -0.0047185845
      4   6  13   2        -0.0047162532
      6   4   2  13        -0.0047162532
      3   4  16  15        -0.0047116827
      4   3  15  16        -0.0047116827
      2   6  10  18         0.0046873749
      6   2  18  10         0.0046873749
      2   5  12  35        -0.0046838571
      5   2  35  12        -0.0046838571
      5   5   2   5        -0.0046781166
      5   5   5   2        -0.0046781166
      3   3   5  11        -0.0046767049
      3   3  11   5        -0.0046767049
      5   5   0  15         0.0046765544
      5   5  15   0         0.0046765544
      6   6   0  15         0.0046727099
      6   6  15   0         0.0046727099
      6   6   1  13        -0.0046710085
      6   6  13   1        -0.0046710085
      4   5  23  12        -0.0046664583
      5   4  12  23        -0.0046664583
      4   6   1   5        -0.0046610669
      6   4   5   1        -0.0046610669
      7   7   1  13        -0.0046579149
      7   7  13   1        -0.0046579149
      2   3  16  14        -0.0046512157
      3   2  14  16        -0.0046512157
      1   1  42  42        -0.0046450663
      0   0  42  42        -0.0046416577
      0   1  42  43        -0.0046403031
      1   0  43  42        -0.0046403031
      0   1  43  42        -0.0046402380
      1   0  42  43        -0.0046402380
      1   1  43  43        -0.0046396767
      3   6  11  15         0.0046374419
      6   3  15  11         0.0046374419
      0   0  43  43        -0.0046363496
      5   7   9   5         0.0046215897
      7   5   5   9         0.0046215897
      4   6  24  21         0.0046111371
      6   4  21  24         0.0046111371
      4   5  17  16         0.0046023836
      5   4  16  17         0.0046023836
      5   5  28  28        -0.0045953138
      6   6  26  26        -0.0045870462
      3   6   9  13         0.0045858497
      6   3  13   9         0.0045858497
      3   4  12   4        -0.0045794503
      4   3   4  12        -0.0045794503
      3   6   9  24        -0.0045760736
      6   3  24   9        -0.0045760736
      6   6  22  22        -0.0045717359
      2   5   3  12        -0.0045688247
      5   2  12   3        -0.0045688247
      6   7   3   3         0.0045680745
      7   6   3   3         0.0045680745
      2   5  14   5         0.0045669384
      5   2   5  14         0.0045669384
      2   6  12   0        -0.0045578453
      6   2   0  12        -0.0045578453
      3   3   0  26         0.0045455688
      3   3  26   0         0.0045455688
      2   3  11  13        -0.0045448595
      3   2  13  11        -0.0045448595
      4   5   9  24         0.0045434478
      5   4  24   9         0.0045434478
      7   7   3  16        -0.0045409891
      7   7  16   3        -0.0045409891
      6   7  16  18        -0.0045373753
      7   6  18  16        -0.0045373753
      4   6   8   6         0.0045313527
      6   4   6   8         0.0045313527
      5   6   4  12        -0.0045290366
      6   5  12   4        -0.0045290366
      3   4  15   3        -0.0045245955
      4   3   3  15        -0.0045245955
      2   3   0  20        -0.0045239137
      3   2  20   0        -0.0045239137
      5   7   8  11         0.0045236981
      7   5  11   8         0.0045236981
      4   6  17   0         0.0045220934
      6   4   0  17         0.0045220934
      7   7   8  20         0.0045215346
      7   7  20   8         0.0045215346
      4   7   2   3         0.0045188711
      7   4   3   2         0.0045188711
      5   6  24   4        -0.0045179420
      6   5   4  24        -0.0045179420
      3   4   9  19         0.0045133739
[...]
      6   7  36  40        -0.0000012178
      7   6  40  36        -0.0000012178
      0   4  42  22         0.0000012117
      4   0  22  42         0.0000012117
      4   5   0  42        -0.0000011983
      5   4  42   0        -0.0000011983
      2   7  43  15        -0.0000011896
      7   2  15  43        -0.0000011896
      3   5  38  23         0.0000011870
      5   3  23  38         0.0000011870
      0   5  41  18        -0.0000011801
      5   0  18  41        -0.0000011801
      5   6   4  43        -0.0000011798
      6   5  43   4        -0.0000011798
      0   2  30  36        -0.0000011767
      2   0  36  30        -0.0000011767
      2   5  43  41        -0.0000011640
      5   2  41  43        -0.0000011640
      4   7  43  34         0.0000011585
      7   4  34  43         0.0000011585
      2   5  42  36         0.0000011583
      5   2  36  42         0.0000011583
      0   0   5  30         0.0000011570
      0   0  30   5         0.0000011570
      0   7  15  12        -0.0000011478
      7   0  12  15        -0.0000011478
      1   6  43   7         0.0000011477
      6   1   7  43         0.0000011477
      0   7  40  33        -0.0000011445
      7   0  33  40        -0.0000011445
      2   2  16  37         0.0000011413
      2   2  37  16         0.0000011413
      0   5  42  34         0.0000011386
      5   0  34  42         0.0000011386
      4   7  43  25         0.0000011335
      7   4  25  43         0.0000011335
      0   4  23  18        -0.0000011224
      4   0  18  23        -0.0000011224
      0   5  34  19         0.0000011170
      5   0  19  34         0.0000011170
      1   4  42  29         0.0000011150
      4   1  29  42         0.0000011150
      0   2   3  18         0.0000011101
      2   0  18   3         0.0000011101
      0   4  42   0        -0.0000011094
      4   0   0  42        -0.0000011094
      4   7  34  43        -0.0000010956
      7   4  43  34        -0.0000010956
      1   6  43   8         0.0000010920
      6   1   8  43         0.0000010920
      2   4  42   4        -0.0000010724
      4   2   4  42        -0.0000010724
      1   4  29   2        -0.0000010716
      4   1   2  29        -0.0000010716
      0   4  42   4         0.0000010710
      4   0   4  42         0.0000010710
      0   3  25  13        -0.0000010692
      3   0  13  25        -0.0000010692
      1   6  34  38         0.0000010685
      6   1  38  34         0.0000010685
      0   5  18  35         0.0000010649
      5   0  35  18         0.0000010649
      1   7  31  39         0.0000010519
      7   1  39  31         0.0000010519
      1   2  23  32         0.0000010487
      2   1  32  23         0.0000010487
      1   6  15  14        -0.0000010372
      6   1  14  15        -0.0000010372
      0   7  23  14        -0.0000010299
      7   0  14  23        -0.0000010299
      0   6  42   8        -0.0000010198
      6   0   8  42        -0.0000010198
      1   1  19  19        -0.0000010113
      1   5  11  18        -0.0000010004
      5   1  18  11        -0.0000010004
      1   3   5  40        -0.0000009971
      3   1  40   5        -0.0000009971
      4   7  40  24        -0.0000009953
      7   4  24  40        -0.0000009953
      0   2  16   1         0.0000009813
      2   0   1  16         0.0000009813
      0   1   4  29         0.0000009803
      1   0  29   4         0.0000009803
      1   5  30  43         0.0000009773
      5   1  43  30         0.0000009773
      0   4  43   9        -0.0000009739
      4   0   9  43        -0.0000009739
      3   4  23  19        -0.0000009525
      4   3  19  23        -0.0000009525
      0   4  36   6         0.0000009453
      4   0   6  36         0.0000009453
      0   5  29  23         0.0000009388
      5   0  23  29         0.0000009388
      0   3  14  31         0.0000009250
      3   0  31  14         0.0000009250
      0   1  35   5        -0.0000009205
      1   0   5  35        -0.0000009205
      2   6  37  27        -0.0000009198
      6   2  27  37        -0.0000009198
      1   1  19  21         0.0000009171
      1   1  21  19         0.0000009171
      6   7   1  43        -0.0000009140
      7   6  43   1        -0.0000009140
      0   4   2  10        -0.0000009126
      4   0  10   2        -0.0000009126
      3   3  25  42         0.0000009097
      3   3  42  25         0.0000009097
      1   5  19  12        -0.0000009042
      5   1  12  19        -0.0000009042
      1   5  30  24         0.0000009037
      5   1  24  30         0.0000009037
      0   4  11   4        -0.0000008953
      4   0   4  11        -0.0000008953
      1   1  30  34        -0.0000008915
      1   1  34  30        -0.0000008915
      0   6  42   7        -0.0000008865
      6   0   7  42        -0.0000008865
      0   6  23  14         0.0000008863
      6   0  14  23         0.0000008863
      1   6  42   4        -0.0000008856
      6   1   4  42        -0.0000008856
      0   0   2  19        -0.0000008808
      0   0  19   2        -0.0000008808
      1   7  23  43        -0.0000008737
      7   1  43  23        -0.0000008737
      3   7  23  41         0.0000008697
      7   3  41  23         0.0000008697
      1   1   0   4        -0.0000008569
      1   1   4   0        -0.0000008569
      1   4  13  26        -0.0000008522
      4   1  26  13        -0.0000008522
      0   0  30  34        -0.0000008511
      0   0  34  30        -0.0000008511
      0   4  42   6        -0.0000008504
      4   0   6  42        -0.0000008504
      0   7  23  42        -0.0000008458
      7   0  42  23        -0.0000008458
      0   1  38  29         0.0000008457
      1   0  29  38         0.0000008457
      2   6  42  29        -0.0000008447
      6   2  29  42        -0.0000008447
      1   4   2   8         0.0000008420
      4   1   8   2         0.0000008420
      2   5  43   1        -0.0000008306
      5   2   1  43        -0.0000008306
      4   6  18  42         0.0000008298
      6   4  42  18         0.0000008298
      0   4  42  27        -0.0000008294
      4   0  27  42        -0.0000008294
      5   7  40  39        -0.0000008225
      7   5  39  40        -0.0000008225
      0   2  11  30         0.0000008181
      2   0  30  11         0.0000008181
      0   6  34  20         0.0000008134
      6   0  20  34         0.0000008134
      0   1  14  12         0.0000008096
      1   0  12  14         0.0000008096
      0   3  19  28        -0.0000008039
      3   0  28  19        -0.0000008039
      0   1  16  30        -0.0000007995
      1   0  30  16        -0.0000007995
      0   7  42  20         0.0000007917
      7   0  20  42         0.0000007917
      1   6  27  40        -0.0000007912
      6   1  40  27        -0.0000007912
      0   7  30  20        -0.0000007898
      7   0  20  30        -0.0000007898
      2   6  43   4         0.0000007871
      6   2   4  43         0.0000007871
      0   1  25  18        -0.0000007866
      1   0  18  25        -0.0000007866
      1   5  30   1         0.0000007859
      5   1   1  30         0.0000007859
      3   7  43   7        -0.0000007781
      7   3   7  43        -0.0000007781
      1   3  11  30        -0.0000007765
      3   1  30  11        -0.0000007765
      1   7  43  23         0.0000007764
      7   1  23  43         0.0000007764
      1   4  23  14        -0.0000007761
      4   1  14  23        -0.0000007761
      1   7  43  33         0.0000007702
      7   1  33  43         0.0000007702
      1   5  42  18        -0.0000007655
      5   1  18  42        -0.0000007655
      6   7  42  34         0.0000007629
      7   6  34  42         0.0000007629
      7   7  34  42         0.0000007563
      7   7  42  34         0.0000007563
      0   3  26  39         0.0000007555
      3   0  39  26         0.0000007555
      6   7   2  42         0.0000007529
      7   6  42   2         0.0000007529
      1   1  14  19         0.0000007356
      1   1  19  14         0.0000007356
      0   3  25   3        -0.0000007299
      3   0   3  25        -0.0000007299
      2   7  23  42        -0.0000007281
      7   2  42  23        -0.0000007281
      0   6  21  17         0.0000007260
      6   0  17  21         0.0000007260
      0   3   1  30        -0.0000007167
      3   0  30   1        -0.0000007167
      1   3   2  19        -0.0000007166
      3   1  19   2        -0.0000007166
      1   3  26  22         0.0000007056
      3   1  22  26         0.0000007056
      0   6  43  15         0.0000006961
      6   0  15  43         0.0000006961
      1   7  42  27        -0.0000006961
      7   1  27  42        -0.0000006961
      1   4  30  29         0.0000006961
      4   1  29  30         0.0000006961
      0   4  27  25         0.0000006958
      4   0  25  27         0.0000006958
      4   5  23   1        -0.0000006805
      5   4   1  23        -0.0000006805
      1   4  42   9        -0.0000006719
      4   1   9  42        -0.0000006719
      0   6  43  10         0.0000006711
      6   0  10  43         0.0000006711
      0   6  16   6        -0.0000006655
      6   0   6  16        -0.0000006655
      2   3  30  43        -0.0000006640
      3   2  43  30        -0.0000006640
      0   4  11  26         0.0000006627
      4   0  26  11         0.0000006627
      0   5  18  43        -0.0000006483
      5   0  43  18        -0.0000006483
      0   3   3  30         0.0000006415
      3   0  30   3         0.0000006415
      1   5  43  19        -0.0000006397
      5   1  19  43        -0.0000006397
      5   7  42  23        -0.0000006392
      7   5  23  42        -0.0000006392
      1   6  23  31        -0.0000006348
      6   1  31  23        -0.0000006348
      1   1   2  19        -0.0000006174
      1   1  19   2        -0.0000006174
      0   5  33  20         0.0000006105
      5   0  20  33         0.0000006105
      0   7  43  10         0.0000006086
      7   0  10  43         0.0000006086
      0   6  30  17        -0.0000006031
      6   0  17  30        -0.0000006031
      2   3  31  14         0.0000006022
      3   2  14  31         0.0000006022
      0   4  43   7         0.0000006018
      4   0   7  43         0.0000006018
      0   2  17  23        -0.0000005937
      2   0  23  17        -0.0000005937
      1   1  22  27         0.0000005817
      1   1  27  22         0.0000005817
      5   7  17  42        -0.0000005780
      7   5  42  17        -0.0000005780
      0   7  27  35        -0.0000005764
      7   0  35  27        -0.0000005764
      3   5  18  42        -0.0000005749
      5   3  42  18        -0.0000005749
      0   4  43  29         0.0000005646
      4   0  29  43         0.0000005646
      3   5  11  31         0.0000005556
      5   3  31  11         0.0000005556
      1   4  42  20        -0.0000005548
      4   1  20  42        -0.0000005548
      1   1   5  30        -0.0000005537
      1   1  30   5        -0.0000005537
      4   5  42   0         0.0000005519
      5   4   0  42         0.0000005519
      0   6  43  32        -0.0000005450
      6   0  32  43        -0.0000005450
      0   5  43  18        -0.0000005314
      5   0  18  43        -0.0000005314
      1   5  18  36         0.0000005300
      5   1  36  18         0.0000005300
      5   6  42  23         0.0000005277
      6   5  23  42         0.0000005277
      0   4  11  10         0.0000005254
      4   0  10  11         0.0000005254
      1   6  21  38        -0.0000005233
      6   1  38  21        -0.0000005233
      1   4  28   6        -0.0000005205
      4   1   6  28        -0.0000005205
      0   0  19  21         0.0000005183
      0   0  21  19         0.0000005183
      1   6  30   6        -0.0000005172
      6   1   6  30        -0.0000005172
      2   7  20  42         0.0000005130
      7   2  42  20         0.0000005130
      0   6  43  27        -0.0000005119
      6   0  27  43        -0.0000005119
      2   6  26  43         0.0000005047
      6   2  43  26         0.0000005047
      2   4  42  10         0.0000004936
      4   2  10  42         0.0000004936
      1   2  13  19         0.0000004907
      2   1  19  13         0.0000004907
      1   7  15  21         0.0000004895
      7   1  21  15         0.0000004895
      3   5  42  18        -0.0000004895
      5   3  18  42        -0.0000004895
      0   1  18  25        -0.0000004667
      1   0  25  18        -0.0000004667
      6   7  42   2         0.0000004571
      7   6   2  42         0.0000004571
      0   5  30  42         0.0000004497
      5   0  42  30         0.0000004497
      1   4   1  10         0.0000004367
      4   1  10   1         0.0000004367
      1   4  34   8         0.0000004343
      4   1   8  34         0.0000004343
      0   6  43   6        -0.0000004325
      6   0   6  43        -0.0000004325
      0   4  42  10         0.0000004195
      4   0  10  42         0.0000004195
      0   0  14  19         0.0000004116
      0   0  19  14         0.0000004116
      0   3  19  35        -0.0000004076
      3   0  35  19        -0.0000004076
      0   4   0   2         0.0000003979
      4   0   2   0         0.0000003979
      4   5   6  42        -0.0000003672
      5   4  42   6        -0.0000003672
      4   7  42  28         0.0000003590
      7   4  28  42         0.0000003590
      3   5  42  43         0.0000003489
      5   3  43  42         0.0000003489
      1   6  29  12         0.0000003464
      6   1  12  29         0.0000003464
      1   4  18  22        -0.0000003411
      4   1  22  18        -0.0000003411
      0   5   4   6        -0.0000003338
      5   0   6   4        -0.0000003338
      0   7  39  42        -0.0000003301
      7   0  42  39        -0.0000003301
      4   4  30  42         0.0000003286
      4   4  42  30         0.0000003286
      0   1  30  16        -0.0000003200
      1   0  16  30        -0.0000003200
      1   4  22   3         0.0000003113
      4   1   3  22         0.0000003113
      0   3  19  41        -0.0000003038
      3   0  41  19        -0.0000003038
      4   7  36  43        -0.0000002831
      7   4  43  36        -0.0000002831
      1   7  39  43        -0.0000002818
      7   1  43  39        -0.0000002818
      0   5  43  16         0.0000002809
      5   0  16  43         0.0000002809
      0   4  19  27         0.0000002791
      4   0  27  19         0.0000002791
      1   4  43  10        -0.0000002723
      4   1  10  43        -0.0000002723
      1   4  26   1         0.0000002684
      4   1   1  26         0.0000002684
      0   5   9   8         0.0000002671
      5   0   8   9         0.0000002671
      1   7  38  25         0.0000002667
      7   1  25  38         0.0000002667
      0   3  32  33         0.0000002644
      3   0  33  32         0.0000002644
      1   5  43  36        -0.0000002567
      5   1  36  43        -0.0000002567
      0   5  30  25         0.0000002538
      5   0  25  30         0.0000002538
      3   4  17  42        -0.0000002524
      4   3  42  17        -0.0000002524
      0   2  34  25         0.0000002514
      2   0  25  34         0.0000002514
      0   5  42  19         0.0000002488
      5   0  19  42         0.0000002488
      1   3  36  36         0.0000002474
      3   1  36  36         0.0000002474
      1   4  22  31         0.0000002447
      4   1  31  22         0.0000002447
      1   5  13  19        -0.0000002422
      5   1  19  13        -0.0000002422
      1   7  43   7        -0.0000002421
      7   1   7  43        -0.0000002421
      2   3  18  42         0.0000002370
      3   2  42  18         0.0000002370
      1   4  43  26        -0.0000002362
      4   1  26  43        -0.0000002362
      0   4  43  20         0.0000002347
      4   0  20  43         0.0000002347
      0   4  32   2         0.0000002331
      4   0   2  32         0.0000002331
      0   3  13  19        -0.0000002325
      3   0  19  13        -0.0000002325
      0   6  42  29        -0.0000002278
      6   0  29  42        -0.0000002278
      1   4   8  14        -0.0000002255
      4   1  14   8        -0.0000002255
      0   5  21  42        -0.0000002102
      5   0  42  21        -0.0000002102
      1   1   3  24         0.0000001947
      1   1  24   3         0.0000001947
      4   7  41  42        -0.0000001876
      7   4  42  41        -0.0000001876
      3   5  19  16        -0.0000001853
      5   3  16  19        -0.0000001853
      0   3   5  13         0.0000001814
      3   0  13   5         0.0000001814
      1   4  43   6        -0.0000001724
      4   1   6  43        -0.0000001724
      0   7  13  15        -0.0000001678
      7   0  15  13        -0.0000001678
      0   6  42   9         0.0000001436
      6   0   9  42         0.0000001436
      1   3  14  19        -0.0000001425
      3   1  19  14        -0.0000001425
      0   7  43  15         0.0000001387
      7   0  15  43         0.0000001387
      1   7  21  38        -0.0000001267
      7   1  38  21        -0.0000001267
      3   7  42  32         0.0000001150
      7   3  32  42         0.0000001150
      1   2  14   3        -0.0000001097
      2   1   3  14        -0.0000001097
      0   3   5  18         0.0000001051
      3   0  18   5         0.0000001051
      0   7  43   6        -0.0000001044
      7   0   6  43        -0.0000001044
      0   3  26  20        -0.0000000955
      3   0  20  26        -0.0000000955
      0   5  33   8        -0.0000000925
      5   0   8  33        -0.0000000925
      1   6  18  17         0.0000000911
      6   1  17  18         0.0000000911
      0   1   3  19         0.0000000897
      1   0  19   3         0.0000000897
      0   1  29  38        -0.0000000879
      1   0  38  29        -0.0000000879
      0   4  43   8         0.0000000865
      4   0   8  43         0.0000000865
      1   1  16  35         0.0000000864
      1   1  35  16         0.0000000864
      1   6  19  27        -0.0000000548
      6   1  27  19        -0.0000000548
      3   6  20  41         0.0000000526
      6   3  41  20         0.0000000526
      3   3  19  34        -0.0000000518
      3   3  34  19        -0.0000000518
      1   5  18  42        -0.0000000507
      5   1  42  18        -0.0000000507
      0   1  19   3         0.0000000504
      1   0   3  19         0.0000000504
      6   6  14  42        -0.0000000479
      6   6  42  14        -0.0000000479
      1   6  19  38        -0.0000000304
      6   1  38  19        -0.0000000304
      1   7  11  32        -0.0000000235
      7   1  32  11        -0.0000000235
      0   3  20  15         0.0000000147
      3   0  15  20         0.0000000147
      2   3  43  19         0.0000000107
      3   2  19  43         0.0000000107
      0   1  29   4         0.0000000104
      1   0   4  29         0.0000000104

    SCF energy       (wfn)                    =  -78.004959071564969
    Reference energy (file100)                =  -78.004959071564883

    Opposite-spin MP2 correlation energy      =   -0.246191970637247
    Same-spin MP2 correlation energy          =   -0.060799345591531
    MP2 correlation energy                    =   -0.306991316228778
      * MP2 total energy                      =  -78.311950387793658

    Opposite-spin CCSD correlation energy     =   -0.284576366275154
    Same-spin CCSD correlation energy         =   -0.054977263831635
    CCSD correlation energy                   =   -0.339553630106789
      * CCSD total energy                     =  -78.344512701671675


*** tstop() called on Berts-MacBook-Pro.local at Wed Dec  6 21:54:30 2017
Module time:
	user time   =     148.74 seconds =       2.48 minutes
	system time =       1.49 seconds =       0.02 minutes
	total time  =        151 seconds =       2.52 minutes
Total time:
	user time   =     204.55 seconds =       3.41 minutes
	system time =       2.67 seconds =       0.04 minutes
	total time  =        208 seconds =       3.47 minutes

*** Psi4 exiting successfully. Buy a developer a beer!
