
    -----------------------------------------------------------------------
          Psi4: An Open-Source Ab Initio Electronic Structure Package
                               Psi4 1.1 release

                         Git: Rev {HEAD} add49b9 


    R. M. Parrish, L. A. Burns, D. G. A. Smith, A. C. Simmonett,
    A. E. DePrince III, E. G. Hohenstein, U. Bozkaya, A. Yu. Sokolov,
    R. Di Remigio, R. M. Richard, J. F. Gonthier, A. M. James,
    H. R. McAlexander, A. Kumar, M. Saitow, X. Wang, B. P. Pritchard,
    P. Verma, H. F. Schaefer III, K. Patkowski, R. A. King, E. F. Valeev,
    F. A. Evangelista, J. M. Turney, T. D. Crawford, and C. D. Sherrill,
    J. Chem. Theory Comput. in press (2017).
    (doi: 10.1021/acs.jctc.7b00174)

    -----------------------------------------------------------------------


    Psi4 started on: Wednesday, 06 December 2017 10:52PM

    Process ID:  12149
    PSIDATADIR: /anaconda3/share/psi4
    Memory:     500.0 MiB
    Threads:    1
    
  ==> Input File <==

--------------------------------------------------------------------------
"""This is a template for psi4 input format."""
import numpy
import sys

from openfermion.config import *
from openfermion.ops._interaction_tensor import (one_body_basis_change,
                                              two_body_basis_change)
from openfermion.hamiltonians import MolecularData
from numpy import array

sys.path.append('/Users/wadejong/Desktop/Quantum-Computing/OpenFermion/OpenFermion-Psi4/openfermionpsi4')
from _psi4_conversion_functions import *

# Set number of threads in PSI4
set_num_threads(8)

# Set memory that job can use in megabytes.
memory 8000 mb

# Initialize molecular data.
_description = 'ethylene_2.12058'
if _description == 'None':
    _description = None
molecule = MolecularData([['C', array([ 0.      ,  0.      ,  0.673055])], ['C', array([ 0.      ,  0.      , -0.673055])], ['H', array([ 0.      ,  0.934981,  1.246807])], ['H', array([ 0.      , -0.934981,  1.246807])], ['H', array([ 0.79720235,  0.48852623, -1.246807  ])], ['H', array([-0.79720235, -0.48852623, -1.246807  ])]],
                         'DZP',
                         1,
                         0,
                         _description,
                          filename='/Users/wadejong/Desktop/QCQCSiddiqi/8_Qubit_Simulation/data/H4-C2_DZP_singlet_ethylene_2.12058')

# Set molecular geometry and symmetry.
molecule mol {
C 0.0 0.0 0.673055
C 0.0 0.0 -0.673055
H 0.0 0.934981 1.246807
H 0.0 -0.934981 1.246807
H 0.7972023535079535 0.4885262305366825 -1.246807
H -0.7972023535079535 -0.4885262305366825 -1.246807
symmetry c1
}
mol.set_multiplicity(1)
mol.set_molecular_charge(0)

# Set reference and guess.
if molecule.multiplicity == 1:
    set reference rhf
    set guess sad
    set sad_frac_occ true
else:
    set reference rohf
    set guess sad
    set sad_frac_occ true

# Set global parameters of calculation.
set globals {
    basis DZP
    freeze_core false
    fail_on_maxiter true
    df_scf_guess false
    guess sad
    sad_frac_occ true
    opdm false
    tpdm false
    soscf true
    scf_type pk
    diis true
    maxiter 1e6
    num_amps_print 1e6
    r_convergence 1e-7
    d_convergence 1e-7
    e_convergence 1e-7
    ints_tolerance EQUALITY_TOLERANCE
    damping_percentage 0
}

# Run self-consistent field (SCF) calculation.
if True:
    try:

        hf_energy, hf_wavefunction = energy('scf', return_wfn=True)
        scf_wfn = hf_wavefunction
        if True:
            print('Hartree-Fock energy for {} ({} electrons) is {}.'.format(
                molecule.name, molecule.n_electrons, hf_energy))
    except:
        if True:
            print('WARNING: SCF calculation failed.')
        else:
            raise
    else:
        # Get orbitals and Fock matrix.
        molecule.hf_energy = hf_energy
        molecule.nuclear_repulsion = mol.nuclear_repulsion_energy()
        molecule.canonical_orbitals = numpy.asarray(hf_wavefunction.Ca())
        molecule.n_orbitals = molecule.canonical_orbitals.shape[0]
        molecule.n_qubits = 2 * molecule.n_orbitals
        molecule.orbital_energies = numpy.asarray(hf_wavefunction.epsilon_a())
        molecule.fock_matrix = numpy.asarray(hf_wavefunction.Fa())

        # Get integrals using MintsHelper.
        mints = MintsHelper(hf_wavefunction.basisset())
        molecule.one_body_integrals = one_body_basis_change(
            numpy.asarray(mints.ao_kinetic()), molecule.canonical_orbitals)
        molecule.one_body_integrals += one_body_basis_change(
            numpy.asarray(mints.ao_potential()), molecule.canonical_orbitals)
        two_body_integrals = numpy.asarray(mints.ao_eri())
        two_body_integrals.reshape((molecule.n_orbitals, molecule.n_orbitals,
                                    molecule.n_orbitals, molecule.n_orbitals))
        two_body_integrals = numpy.einsum('psqr', two_body_integrals)
        two_body_integrals = two_body_basis_change(
            two_body_integrals, molecule.canonical_orbitals)
        molecule.two_body_integrals = two_body_integrals
        molecule.save()


# Perform MP2 energy calculation if there are at least two electrons.
if True:
    try:
        assert molecule.n_electrons > 1
        mp2_energy = energy('mp2',ref_wfn=scf_wfn)
        if True:
            print('MP2 energy for {} ({} electrons) is {}.'.format(
                molecule.name, molecule.n_electrons, mp2_energy))
    except:
        if True:
            print('WARNING: MP2 calculation failed.')
        else:
            raise
    else:
        molecule.mp2_energy = mp2_energy
        molecule.save()


# Perform configuration interaction singles and doubles (CISD) calculation.
if True:
    set qc_module detci
    try:
        cisd_energy, cisd_wavefunction = energy('cisd', ref_wfn=scf_wfn, return_wfn=True)
        if True:
            print('CISD energy for {} ({} electrons) is {}.'.format(
                molecule.name, molecule.n_electrons, cisd_energy))
    except:
        if True:
            print('WARNING: CISD calculation failed.')
        else:
            raise
    else:
        # For the functions below, "a" and "b" refer to "up and "down" spins.
        molecule.cisd_energy = cisd_energy

        # Get 1-RDM from CISD calculation.
        """cisd_one_rdm_a = numpy.array(cisd_wavefunction.get_opdm(
            0, 0, 'A', True)).reshape(molecule.n_orbitals, molecule.n_orbitals)
        cisd_one_rdm_b = numpy.array(cisd_wavefunction.get_opdm(
            0, 0, 'B', True)).reshape(molecule.n_orbitals, molecule.n_orbitals)

        # Get 2-RDM from CISD calculation.
        cisd_two_rdm_aa = numpy.array(cisd_wavefunction.get_tpdm(
            'AA', False)).reshape(molecule.n_orbitals, molecule.n_orbitals,
                                  molecule.n_orbitals, molecule.n_orbitals)
        cisd_two_rdm_ab = numpy.array(cisd_wavefunction.get_tpdm(
            'AB', False)).reshape(molecule.n_orbitals, molecule.n_orbitals,
                                  molecule.n_orbitals, molecule.n_orbitals)
        cisd_two_rdm_bb = numpy.array(cisd_wavefunction.get_tpdm(
            'BB', False)).reshape(molecule.n_orbitals, molecule.n_orbitals,
                                  molecule.n_orbitals, molecule.n_orbitals)

        # Get overall RDMs.
        cisd_one_rdm, cisd_two_rdm = unpack_spatial_rdm(
            cisd_one_rdm_a, cisd_one_rdm_b, cisd_two_rdm_aa,
            cisd_two_rdm_ab, cisd_two_rdm_bb)

        # Store 1-RDM in molecule file, 2-RDM separately in other file.
        molecule.cisd_one_rdm = cisd_one_rdm
        molecule.cisd_two_rdm = cisd_two_rdm
        molecule.save()"""


# Perform exact diagonalization.
if False:
    set qc_module detci
    try:
        fci_energy, fci_wavefunction = energy('fci', ref_wfn=scf_wfn, return_wfn=True)
        if True:
            print('FCI energy for {} ({} electrons) is {}.'.format(
                molecule.name, molecule.n_electrons, fci_energy))
    except:
        if True:
            print('WARNING: FCI calculation failed.')
        else:
            raise
    else:
        # For the functions below, "a" and "b" refer to "up and "down" spins.
        molecule.fci_energy = fci_energy

        # Get 1-RDM from FCI calculation.
        """fci_one_rdm_a = numpy.array(fci_wavefunction.get_opdm(
            0, 0, 'A', True)).reshape(molecule.n_orbitals, molecule.n_orbitals)
        fci_one_rdm_b = numpy.array(fci_wavefunction.get_opdm(
            0, 0, 'B', True)).reshape(molecule.n_orbitals, molecule.n_orbitals)

        # Get 2-RDM from FCI calculation.
        fci_two_rdm_aa = numpy.array(fci_wavefunction.get_tpdm(
            'AA', False)).reshape(molecule.n_orbitals, molecule.n_orbitals,
                                  molecule.n_orbitals, molecule.n_orbitals)
        fci_two_rdm_ab = numpy.array(fci_wavefunction.get_tpdm(
            'AB', False)).reshape(molecule.n_orbitals, molecule.n_orbitals,
                                  molecule.n_orbitals, molecule.n_orbitals)
        fci_two_rdm_bb = numpy.array(fci_wavefunction.get_tpdm(
            'BB', False)).reshape(molecule.n_orbitals, molecule.n_orbitals,
                                  molecule.n_orbitals, molecule.n_orbitals)

        # Get overall RDMs.
        fci_one_rdm, fci_two_rdm = unpack_spatial_rdm(
            fci_one_rdm_a, fci_one_rdm_b,
            fci_two_rdm_aa, fci_two_rdm_ab, fci_two_rdm_bb)

        # Store 1-RDM in molecule file, 2-RDM separately in other file.
        molecule.fci_one_rdm = fci_one_rdm
        molecule.fci_two_rdm = fci_two_rdm
        molecule.save()"""


# Perform coupled cluster singles and doubles (CCSD) calculation.
if True:
    set qc_module ccenergy
    try:
        ccsd_energy = energy('ccsd',ref_wfn=scf_wfn)
        if True:
            print('CCSD energy for {} ({} electrons) is {}.'.format(
                molecule.name, molecule.n_electrons, ccsd_energy))
    except:
        if True:
            print('WARNING: CCSD calculation failed.')
        else:
            raise
    else:
        molecule.ccsd_energy = ccsd_energy

        # Merge CC amplitudes into molecule by parsing
        psi_filename = outfile_name()
        ccsd_amplitudes = parse_psi4_ccsd_amplitudes(
            2 * molecule.n_orbitals,
            molecule.get_n_alpha_electrons(),
            molecule.get_n_beta_electrons(),
            psi_filename)
        molecule.ccsd_amplitudes = ccsd_amplitudes
        molecule.save()
--------------------------------------------------------------------------
  Python driver attempted to set threads to 8.
  Psi4 was compiled without OpenMP, setting threads to 1.

  Memory set to   7.451 GiB by Python driver.

*** tstart() called on Berts-MacBook-Pro.local
*** at Wed Dec  6 22:52:30 2017

   => Loading Basis Set <=

    Name: DZP
    Role: ORBITAL
    Keyword: BASIS
    atoms 1-2 entry C          line    73 file /anaconda3/share/psi4/basis/dzp.gbs 
    atoms 3-6 entry H          line    16 file /anaconda3/share/psi4/basis/dzp.gbs 


         ---------------------------------------------------------
                                   SCF
            by Justin Turney, Rob Parrish, and Andy Simmonett
                              RHF Reference
                        1 Threads,   7629 MiB Core
         ---------------------------------------------------------

  ==> Geometry <==

    Molecular point group: c1
    Full point group: D2

    Geometry (in Angstrom), charge = 0, multiplicity = 1:

       Center              X                  Y                   Z               Mass       
    ------------   -----------------  -----------------  -----------------  -----------------
           C          0.000000000000     0.000000000000     0.673055000000    12.000000000000
           C          0.000000000000     0.000000000000    -0.673055000000    12.000000000000
           H         -0.456851576996     0.815767189189     1.246807000000     1.007825032070
           H          0.456851576996    -0.815767189189     1.246807000000     1.007825032070
           H          0.456851576996     0.815767189189    -1.246807000000     1.007825032070
           H         -0.456851576996    -0.815767189189    -1.246807000000     1.007825032070

  Running in c1 symmetry.

  Rotational constants: A =      4.78350  B =      0.93756  C =      0.85047 [cm^-1]
  Rotational constants: A = 143405.72603  B =  28107.48793  C =  25496.41086 [MHz]
  Nuclear repulsion =   32.996617572574081

  Charge       = 0
  Multiplicity = 1
  Electrons    = 16
  Nalpha       = 8
  Nbeta        = 8

  ==> Algorithm <==

  SCF Algorithm Type is PK.
  DIIS enabled.
  MOM disabled.
  Fractional occupation disabled.
  Guess Type is SAD.
  Energy threshold   = 1.00e-07
  Density threshold  = 1.00e-07
  Integral threshold = 0.00e+00

  ==> Primary Basis <==

  Basis Set: DZP
    Blend: DZP
    Number of shells: 26
    Number of basis function: 52
    Number of Cartesian functions: 52
    Spherical Harmonics?: false
    Max angular momentum: 2

  ==> Pre-Iterations <==

   -------------------------------------------------------
    Irrep   Nso     Nmo     Nalpha   Nbeta   Ndocc  Nsocc
   -------------------------------------------------------
     A         52      52       0       0       0       0
   -------------------------------------------------------
    Total      52      52       8       8       8       0
   -------------------------------------------------------

  ==> Integral Setup <==

  Using in-core PK algorithm.
   Calculation information:
      Number of atoms:                   6
      Number of AO shells:              26
      Number of primitives:             50
      Number of atomic orbitals:        52
      Number of basis functions:        52

      Integral cutoff                 1.00e-12
      Number of threads:                 1

  Performing in-core PK
  Using 1900262 doubles for integral storage.
  We computed 61769 shell quartets total.
  Whereas there are 61776 unique shell quartets.
  ==> DiskJK: Disk-Based J/K Matrices <==

    J tasked:                  Yes
    K tasked:                  Yes
    wK tasked:                  No
    Memory (MB):              5722
    Schwarz Cutoff:          1E-12

    OpenMP threads:              1
  Minimum eigenvalue in the overlap matrix is 9.1113907108E-03.
  Using Symmetric Orthogonalization.

  SCF Guess: Superposition of Atomic Densities via on-the-fly atomic UHF.

  ==> Iterations <==

                        Total Energy        Delta E     RMS |[F,P]|

   @RHF iter   0:   -69.16330839117998   -6.91633e+01   1.01492e-01 
   @RHF iter   1:   -74.22245806272437   -5.05915e+00   4.01039e-02 
   @RHF iter   2:   -77.09707613488055   -2.87462e+00   2.44481e-02 DIIS/DAMP
   @RHF iter   3:   -77.96246662631413   -8.65390e-01   2.42585e-03 DIIS/DAMP
   @RHF iter   4:   -77.97437544765798   -1.19088e-02   4.25893e-04 SOSCF, nmicro = 4/DAMP
   @RHF iter   5:   -77.97503198942670   -6.56542e-04   2.21388e-06 SOSCF, nmicro = 4/DAMP
   @RHF iter   6:   -77.97503200188241   -1.24557e-08   1.75379e-09 SOSCF, conv/DAMP

  ==> Post-Iterations <==

    Orbital Energies (a.u.)
    -----------------------

    Doubly Occupied:                                                      

       1A    -11.247725     2A    -11.246209     3A     -1.029667  
       4A     -0.789771     5A     -0.619484     6A     -0.584877  
       7A     -0.549789     8A     -0.310649  

    Virtual:                                                              

       9A      0.094699    10A      0.257272    11A      0.314620  
      12A      0.339193    13A      0.396515    14A      0.412314  
      15A      0.450766    16A      0.459604    17A      0.476326  
      18A      0.568549    19A      0.594739    20A      0.683956  
      21A      0.818155    22A      1.008932    23A      1.215666  
      24A      1.250236    25A      1.300527    26A      1.405030  
      27A      1.563404    28A      1.623302    29A      1.735705  
      30A      1.964759    31A      1.992425    32A      2.062744  
      33A      2.079332    34A      2.132795    35A      2.196781  
      36A      2.443204    37A      2.458169    38A      2.474287  
      39A      2.633721    40A      2.768550    41A      2.860538  
      42A      2.910896    43A      2.936618    44A      3.193857  
      45A      3.445507    46A      3.486898    47A      3.560388  
      48A      3.776296    49A      4.248162    50A      4.500714  
      51A     27.636486    52A     27.653984  

    Final Occupation by Irrep:
              A 
    DOCC [     8 ]

  Energy converged.

  @RHF Final Energy:   -77.97503200188241

   => Energetics <=

    Nuclear Repulsion Energy =             32.9966175725740811
    One-Electron Energy =                -169.1869577403342646
    Two-Electron Energy =                  58.2153081658777722
    DFT Exchange-Correlation Energy =       0.0000000000000000
    Empirical Dispersion Energy =           0.0000000000000000
    PCM Polarization Energy =               0.0000000000000000
    EFP Energy =                            0.0000000000000000
    Total Energy =                        -77.9750320018824112



Properties will be evaluated at   0.000000,   0.000000,   0.000000 Bohr

Properties computed using the SCF density matrix

  Nuclear Dipole Moment: (a.u.)
     X:     0.0000      Y:     0.0000      Z:     0.0000

  Electronic Dipole Moment: (a.u.)
     X:     0.0000      Y:     0.0000      Z:     0.0000

  Dipole Moment: (a.u.)
     X:     0.0000      Y:     0.0000      Z:     0.0000     Total:     0.0000

  Dipole Moment: (Debye)
     X:     0.0000      Y:     0.0000      Z:     0.0000     Total:     0.0000


*** tstop() called on Berts-MacBook-Pro.local at Wed Dec  6 22:52:30 2017
Module time:
	user time   =       0.38 seconds =       0.01 minutes
	system time =       0.06 seconds =       0.00 minutes
	total time  =          0 seconds =       0.00 minutes
Total time:
	user time   =       0.38 seconds =       0.01 minutes
	system time =       0.06 seconds =       0.00 minutes
	total time  =          0 seconds =       0.00 minutes

*** tstart() called on Berts-MacBook-Pro.local
*** at Wed Dec  6 22:52:34 2017


  //>>>>>>>>>>>>>>>>>>>>>>>>>>>>>>>>>>>//
  //               DFMP2               //
  //<<<<<<<<<<<<<<<<<<<<<<<<<<<<<<<<<<<//

   => Loading Basis Set <=

    Name: (DZP AUX)
    Role: RIFIT
    Keyword: DF_BASIS_MP2
    atoms 1-2 entry C          line   269 file /anaconda3/share/psi4/basis/def2-qzvpp-ri.gbs 
    atoms 3-6 entry H          line    23 file /anaconda3/share/psi4/basis/def2-qzvpp-ri.gbs 

	 --------------------------------------------------------
	                          DF-MP2                         
	      2nd-Order Density-Fitted Moller-Plesset Theory     
	              RMP2 Wavefunction,   1 Threads             
	                                                         
	        Rob Parrish, Justin Turney, Andy Simmonett,      
	           Ed Hohenstein, and C. David Sherrill          
	 --------------------------------------------------------

   => Auxiliary Basis Set <=

  Basis Set: (DZP AUX)
    Blend: DEF2-QZVPP-RI
    Number of shells: 130
    Number of basis function: 506
    Number of Cartesian functions: 666
    Spherical Harmonics?: true
    Max angular momentum: 5

	 --------------------------------------------------------
	                 NBF =    52, NAUX =   506
	 --------------------------------------------------------
	   CLASS    FOCC     OCC    AOCC    AVIR     VIR    FVIR
	   PAIRS       0       8       8      44      44       0
	 --------------------------------------------------------

	-----------------------------------------------------------
	 ==================> DF-MP2 Energies <==================== 
	-----------------------------------------------------------
	 Reference Energy          =     -77.9750320018824112 [Eh]
	 Singles Energy            =      -0.0000000000000000 [Eh]
	 Same-Spin Energy          =      -0.0611206548623231 [Eh]
	 Opposite-Spin Energy      =      -0.2480040276573721 [Eh]
	 Correlation Energy        =      -0.3091246825196952 [Eh]
	 Total Energy              =     -78.2841566844021060 [Eh]
	-----------------------------------------------------------
	 ================> DF-SCS-MP2 Energies <================== 
	-----------------------------------------------------------
	 SCS Same-Spin Scale       =       0.3333333333333333 [-]
	 SCS Opposite-Spin Scale   =       1.2000000000000000 [-]
	 SCS Same-Spin Energy      =      -0.0203735516207744 [Eh]
	 SCS Opposite-Spin Energy  =      -0.2976048331888465 [Eh]
	 SCS Correlation Energy    =      -0.3179783848096209 [Eh]
	 SCS Total Energy          =     -78.2930103866920319 [Eh]
	-----------------------------------------------------------


*** tstop() called on Berts-MacBook-Pro.local at Wed Dec  6 22:52:34 2017
Module time:
	user time   =       0.29 seconds =       0.00 minutes
	system time =       0.05 seconds =       0.00 minutes
	total time  =          0 seconds =       0.00 minutes
Total time:
	user time   =       4.58 seconds =       0.08 minutes
	system time =       0.25 seconds =       0.00 minutes
	total time  =          4 seconds =       0.07 minutes
 MINTS: Wrapper to libmints.
   by Justin Turney

   Calculation information:
      Number of threads:                 1
      Number of atoms:                   6
      Number of AO shells:              26
      Number of SO shells:              26
      Number of primitives:             50
      Number of atomic orbitals:        52
      Number of basis functions:        52

      Number of irreps:                  1
      Integral cutoff                 0.00e+00
      Number of functions per irrep: [  52 ]

 OEINTS: Overlap, kinetic, potential, dipole, and quadrupole integrals
         stored in file 35.

      Computing two-electron integrals...done
      Computed 840580 non-zero two-electron integrals.
        Stored in file 33.


         ---------------------------------------------------------
                          Configuration Interaction
                            (a 'D E T C I' module)

                 C. David Sherrill, Daniel G. A. Smith, and
                              Matt L. Leininger
         ---------------------------------------------------------


   ==> Parameters <==

    EX LEVEL       =        2      H0 BLOCKSIZE  =     1000
    VAL EX LEVEL   =        0      H0 GUESS SIZE =     1000
    H0COUPLINGSIZE =        0      H0 COUPLING   =       NO
    MAXITER        =       24      NUM PRINT     =       20
    NUM ROOTS      =        1      ICORE         =        1
    PRINT LVL      =        1      FCI           =       NO
    R CONV         = 1.00e-07      MIXED         =      YES
    E CONV         = 1.00e-07      MIXED4        =      YES
    R4S            =       NO      REPL OTF      =       NO
    DIAG METHOD    =      SEM      FOLLOW ROOT   =        0
    PRECONDITIONER = DAVIDSON      UPDATE        = DAVIDSON
    S              =   0.0000      Ms0           =      YES
    GUESS VECTOR   =  H0BLOCK      OPENTYPE      =     NONE
    COLLAPSE SIZE  =        1      HD AVG        = EVANGELISTI
    MAX NUM VECS   =       25      REF SYM       =     AUTO
    IOPEN        =       NO

    EX ALLOW       =  1  1 
    STATE AVERAGE  =  0(1.00) 

   ==> CI Orbital and Space information <==

    RAS1 LVL      =        7      A RAS3 MAX    =        2
    RAS1 MIN      =       14      B RAS3 MAX    =        2
    A RAS1 LVL    =        7      RAS4 LVL      =       52
    A RAS1 MIN    =        6      A RAS4 MAX    =        0
    A RAS1 MAX    =        8      B RAS4 MAX    =        0
    B RAS1 LVL    =        7      RAS4 MAX      =        0
    B RAS1 MIN    =        6      A RAS34 MAX   =        2
    B RAS1 MAX    =        8      B RAS34 MAX   =        2
    RAS3 LVL      =        8      RAS34 MAX     =        2
    RAS3 MAX      =        2
   ------------------------------------
               Space    Total     A
   ------------------------------------
                 Nso       52    52
                 Nmo       52    52
               Ndocc        8     8
               Nsocc        0     0
   ------------------------------------
              CI Spaces
   ------------------------------------
        Dropped DOCC        0     0
                RAS1        8     8
                RAS2        0     0
                RAS3       44    44
                RAS4        0     0
      Active (total)       52    52
        Dropped UOCC        0     0
   ------------------------------------

   ==> Setting up CI strings <==

    There are 26841 alpha and 26841 beta strings
    The CI space requires 177585 (1.78E+05) determinants and 6 blocks

   ==> Transforming CI integrals <==

	Presorting SO-basis two-electron integrals.
	Sorting File: SO Ints (nn|nn) nbuckets = 1
	Transforming the one-electron integrals and constructing Fock matrices
	Starting first half-transformation.
	Sorting half-transformed integrals.
	First half integral transformation complete.
	Starting second half-transformation.
	Two-electron integral transformation complete.

   ==> Starting CI iterations <==

    H0 Block Eigenvalue = -78.01832821

    Simultaneous Expansion Method (Block Davidson Method)
    Using 1 initial trial vectors

     Iter   Root       Total Energy       Delta E      C RMS

   @CI  0:     0    -78.018328212986   -1.1101E+02   1.5049E+00  
   @CI  1:     0    -78.270973334125   -2.5265E-01   1.5795E-01  
   @CI  2:     0    -78.285754962421   -1.4782E-02   6.0161E-02  
   @CI  3:     0    -78.287542610396   -1.7876E-03   1.8648E-02  
   @CI  4:     0    -78.287680474840   -1.3786E-04   5.3890E-03  
   @CI  5:     0    -78.287691190134   -1.0715E-05   1.4875E-03  
   @CI  6:     0    -78.287691953636   -7.6350E-07   4.0935E-04  
   @CI  7:     0    -78.287692011556   -5.7920E-08   1.1616E-04  
   @CI  8:     0    -78.287692015659   -4.1030E-09   2.7317E-05  
   @CI  9:     0    -78.287692015894   -2.3536E-10   6.8343E-06  
   @CI 10:     0    -78.287692015908   -1.3287E-11   1.4081E-06  
   @CI 11:     0    -78.287692015908   -5.8265E-13   2.9676E-07  
    Warning: Norm of correction (root 0) is < 1.0E-13
   @CI 12:     0    -78.287692015908   -4.2633E-14   6.4174E-08 c

   ==> Energetics <==

    SCF energy =            0.000000000000000
    Total CI energy =     -78.287692015908178

   ==> CISD root 0 information <==

    CISD Root 0 energy =   -78.287692015908178

   The 20 most important determinants:

    *   1   -0.947285  (    0,    0)  1AX 2AX 3AX 4AX 5AX 6AX 7AX 8AX 
    *   2    0.106537  (    1,    1)  1AX 2AX 3AX 4AX 5AX 6AX 7AX 9AX 
    *   3    0.040882  (    1,   81)  1AX 2AX 3AX 4AX 5AX 6AX 7AX 9AA 19AB 
    *   4    0.040882  (   81,    1)  1AX 2AX 3AX 4AX 5AX 6AX 7AX 9AB 19AA 
    *   5   -0.029187  (    1,    2)  1AX 2AX 3AX 4AX 5AX 6AX 7AA 8AB 9AX 
    *   6   -0.029187  (    2,    1)  1AX 2AX 3AX 4AX 5AX 6AX 7AB 8AA 9AX 
    *   7    0.027098  (   99,   99)  1AX 2AX 3AX 4AX 5AX 7AX 8AX 21AX 
    *   8    0.022245  (   81,   81)  1AX 2AX 3AX 4AX 5AX 6AX 7AX 19AX 
    *   9    0.022218  (    1,   99)  1AX 2AX 3AX 4AX 5AX 6AA 7AX 8AB 9AA 21AB 
    *  10    0.022218  (   99,    1)  1AX 2AX 3AX 4AX 5AX 6AB 7AX 8AA 9AB 21AA 
    *  11    0.021510  (    2,    2)  1AX 2AX 3AX 4AX 5AX 6AX 8AX 9AX 
    *  12    0.019151  (    5,    5)  1AX 2AX 3AX 5AX 6AX 7AX 8AX 9AX 
    *  13    0.018656  (   36,   36)  1AX 2AX 3AX 4AX 6AX 7AX 8AX 13AX 
    *  14    0.018027  (   43,   43)  1AX 2AX 3AX 4AX 5AX 7AX 8AX 14AX 
    *  15    0.017430  (    0, 2202)  1AX 2AX 3AX 4AX 5AX 6AA 7AX 8AA 9AB 21AB 
    *  16    0.017430  ( 2202,    0)  1AX 2AX 3AX 4AX 5AX 6AB 7AX 8AB 9AA 21AA 
    *  17    0.017413  (   81,   99)  1AX 2AX 3AX 4AX 5AX 6AA 7AX 8AB 19AA 21AB 
    *  18    0.017413  (   99,   81)  1AX 2AX 3AX 4AX 5AX 6AB 7AX 8AA 19AB 21AA 
    *  19   -0.016288  (    2,   81)  1AX 2AX 3AX 4AX 5AX 6AX 7AB 8AA 9AA 19AB 
    *  20   -0.016288  (   81,    2)  1AX 2AX 3AX 4AX 5AX 6AX 7AA 8AB 9AB 19AA 

		 "A good bug is a dead bug" 

			 - Starship Troopers

		 "I didn't write FORTRAN.  That's the problem."

			 - Edward Valeev
 MINTS: Wrapper to libmints.
   by Justin Turney

   Calculation information:
      Number of threads:                 1
      Number of atoms:                   6
      Number of AO shells:              26
      Number of SO shells:              26
      Number of primitives:             50
      Number of atomic orbitals:        52
      Number of basis functions:        52

      Number of irreps:                  1
      Integral cutoff                 0.00e+00
      Number of functions per irrep: [  52 ]

 OEINTS: Overlap, kinetic, potential, dipole, and quadrupole integrals
         stored in file 35.

      Computing two-electron integrals...done
      Computed 840580 non-zero two-electron integrals.
        Stored in file 33.


*** tstart() called on Berts-MacBook-Pro.local
*** at Wed Dec  6 22:53:26 2017


	Wfn Parameters:
	--------------------
	Wavefunction         = CCSD
	Number of irreps     = 1
	Number of MOs        = 52
	Number of active MOs = 52
	AO-Basis             = NONE
	Semicanonical        = false
	Reference            = RHF
	Print Level          = 1

	IRREP	# MOs	# FZDC	# DOCC	# SOCC	# VIRT	# FZVR
	-----	-----	------	------	------	------	------
	 A	   52	    0	    8	    0	    44	    0
	Transforming integrals...
	IWL integrals will be deleted.
	(OO|OO)...
	Presorting SO-basis two-electron integrals.
	Sorting File: SO Ints (nn|nn) nbuckets = 1
	Transforming the one-electron integrals and constructing Fock matrices
	Starting first half-transformation.
	Sorting half-transformed integrals.
	First half integral transformation complete.
	Starting second half-transformation.
	Two-electron integral transformation complete.
	(OO|OV)...
	Starting second half-transformation.
	Two-electron integral transformation complete.
	(OO|VV)...
	Starting second half-transformation.
	Two-electron integral transformation complete.
	(OV|OO)...
	Starting first half-transformation.
	Sorting half-transformed integrals.
	First half integral transformation complete.
	Starting second half-transformation.
	Two-electron integral transformation complete.
	(OV|OV)...
	Starting second half-transformation.
	Two-electron integral transformation complete.
	(OV|VV)...
	Starting second half-transformation.
	Two-electron integral transformation complete.
	(VV|OO)...
	Starting first half-transformation.
	Sorting half-transformed integrals.
	First half integral transformation complete.
	Starting second half-transformation.
	Two-electron integral transformation complete.
	(VV|OV)...
	Starting second half-transformation.
	Two-electron integral transformation complete.
	(VV|VV)...
	Starting second half-transformation.
	Two-electron integral transformation complete.
	Frozen core energy     =      0.00000000000000

	Size of irrep 0 of <ab|cd> integrals:      3.748 (MW) /     29.985 (MB)
	Total:                                     3.748 (MW) /     29.985 (MB)

	Size of irrep 0 of <ia|bc> integrals:      0.681 (MW) /      5.452 (MB)
	Total:                                     0.681 (MW) /      5.452 (MB)

	Size of irrep 0 of tijab amplitudes:       0.124 (MW) /      0.991 (MB)
	Total:                                     0.124 (MW) /      0.991 (MB)

	Nuclear Rep. energy          =     32.99661757257408
	SCF energy                   =    -77.97503200188241
	One-electron energy          =   -169.18695780851729
	Two-electron energy          =     58.21530823406088
	Reference energy             =    -77.97503200188234

*** tstop() called on Berts-MacBook-Pro.local at Wed Dec  6 22:53:27 2017
Module time:
	user time   =       0.27 seconds =       0.00 minutes
	system time =       0.47 seconds =       0.01 minutes
	total time  =          1 seconds =       0.02 minutes
Total time:
	user time   =      55.99 seconds =       0.93 minutes
	system time =       1.33 seconds =       0.02 minutes
	total time  =         57 seconds =       0.95 minutes

*** tstart() called on Berts-MacBook-Pro.local
*** at Wed Dec  6 22:53:27 2017

            **************************
            *                        *
            *        CCENERGY        *
            *                        *
            **************************

    Nuclear Rep. energy (wfn)     =   32.996617572574081
    SCF energy          (wfn)     =  -77.975032001882411
    Reference energy    (file100) =  -77.975032001882340

    Input parameters:
    -----------------
    Wave function   =     CCSD
    Reference wfn   =     RHF
    Brueckner       =     No
    Memory (Mbytes) =     8000.0
    Maxiter         =   1000000
    R_Convergence   =     1.0e-07
    E_Convergence   =     1.0e-07
    Restart         =     Yes
    DIIS            =     Yes
    AO Basis        =     NONE
    ABCD            =     NEW
    Cache Level     =     2
    Cache Type      =     LOW
    Print Level     =     1
    Num. of threads =     1
    # Amps to Print =     1000000
    Print MP2 Amps? =     No
    Analyze T2 Amps =     No
    Print Pair Ener =     No
    Local CC        =     No
    SCS-MP2         =     False
    SCSN-MP2        =     False
    SCS-CCSD        =     False

MP2 correlation energy -0.3091329201822235
                Solving CC Amplitude Equations
                ------------------------------
  Iter             Energy              RMS        T1Diag      D1Diag    New D1Diag    D2Diag
  ----     ---------------------    ---------   ----------  ----------  ----------   --------
     0        -0.309132920182224    0.000e+00    0.000000    0.000000    0.000000    0.168103
     1        -0.329622975106495    6.061e-02    0.007306    0.026384    0.026384    0.191382
     2        -0.341141532573175    3.037e-02    0.009366    0.034684    0.034684    0.220595
     3        -0.343108076709002    1.362e-02    0.011028    0.041447    0.041447    0.238635
     4        -0.343340954257964    5.656e-03    0.011282    0.042724    0.042724    0.248390
     5        -0.343384680377326    1.376e-03    0.011242    0.042608    0.042608    0.249804
     6        -0.343376898233846    4.020e-04    0.011217    0.042514    0.042514    0.249833
     7        -0.343376810971892    1.399e-04    0.011211    0.042488    0.042488    0.249861
     8        -0.343376492986046    3.629e-05    0.011211    0.042488    0.042488    0.249857
     9        -0.343376362178914    1.013e-05    0.011211    0.042489    0.042489    0.249857
    10        -0.343376704274946    3.144e-06    0.011212    0.042490    0.042490    0.249859
    11        -0.343376692926779    9.139e-07    0.011212    0.042490    0.042490    0.249858
    12        -0.343376712363138    2.256e-07    0.011212    0.042490    0.042490    0.249858
    13        -0.343376708131576    7.007e-08    0.011212    0.042490    0.042490    0.249858

    Iterations converged.


    Largest TIA Amplitudes:
              7   9         0.0286878750
              7   7         0.0277773069
              7  20         0.0084420311
              6   9         0.0073917339
              7  17        -0.0058264651
              4   4         0.0050588382
              7  29         0.0048551729
              6   7         0.0045166907
              3  13         0.0042283844
              5  21         0.0042055955
              5   5         0.0042001012
              3  23         0.0034699894
              4  22        -0.0031054040
              6   8        -0.0028420554
              6  33         0.0027495144
              2  40         0.0026063715
              2  21         0.0026053137
              2  26        -0.0025492627
              2   2        -0.0025460112
              5  34        -0.0023141841
              4  15         0.0022318427
              6  17        -0.0019784403
              4  32         0.0019662664
              7  24         0.0019369553
              4  10        -0.0018878479
              3  41         0.0018557663
              5  18        -0.0018536406
              7  33        -0.0018502062
              3  27        -0.0017089461
              6  24        -0.0015938834
              2   5         0.0015563277
              3  35         0.0015285735
              4  38         0.0014683619
              6  20         0.0014238510
              4  25         0.0012955666
              3  36         0.0012887095
              3   1        -0.0011955890
              5  11        -0.0011908379
              7  39         0.0011359855
              5  14        -0.0011231350
              2  11         0.0011153536
              2  30        -0.0010808267
              6  39         0.0010356798
              5  37        -0.0009874769
              2  37         0.0009267744
              5   2        -0.0009260198
              3  12         0.0008666233
              2  14         0.0008405318
              3  31        -0.0007743461
              4  28         0.0006629275
              5  26         0.0006625856
              1  13        -0.0005694464
              3  19        -0.0005503682
              5  40         0.0004742008
              0  40        -0.0004549545
              1  41        -0.0003851494
              1   1        -0.0003300264
              0  11        -0.0003121399
              0  14        -0.0003002848
              2  34        -0.0002968590
              4   0         0.0002741690
              0   2        -0.0002610844
              1  12        -0.0002496643
              1  35        -0.0002299612
              5  30         0.0002275432
              3  16         0.0002195747
              0  37        -0.0001783048
              1   3        -0.0001574560
              0   5        -0.0001485041
              1  36        -0.0001327787
              1  27        -0.0001278952
              7   8        -0.0001206875
              2  42         0.0001204753
              0  21        -0.0001170180
              1  23        -0.0001065379
              1  43         0.0000967133
              0  42         0.0000962380
              3  43         0.0000909666
              1  16        -0.0000523599
              6  29        -0.0000461893
              0  34        -0.0000431776
              5  42         0.0000172909
              1  31        -0.0000089750
              0  18        -0.0000056086
              0  26         0.0000055020
              3   3        -0.0000049175
              1  19        -0.0000038627
              0  30         0.0000020048
              4   6         0.0000012449
              2  18        -0.0000006261

    Largest TIjAb Amplitudes:
      7   7   0   0        -0.1778978682
      7   7   0  10        -0.0589872189
      7   7  10   0        -0.0589872189
      6   7   0   0        -0.0388063977
      7   6   0   0        -0.0388063977
      5   5  12  12        -0.0314185288
      6   6   0   0        -0.0265360138
      7   7  10  10        -0.0261501432
      5   7  12   0        -0.0253606218
      7   5   0  12        -0.0253606218
      4   4   4   4        -0.0227013731
      3   3   0   0        -0.0220109850
      6   7   0  10        -0.0218236962
      7   6  10   0        -0.0218236962
      5   5   5   5        -0.0217817544
      5   7  12  10        -0.0202595831
      7   5  10  12        -0.0202595831
      6   7   0   4        -0.0194078197
      7   6   4   0        -0.0194078197
      6   7  10   0        -0.0188183312
      7   6   0  10        -0.0188183312
      6   6   7   7        -0.0185452877
      7   7   9   9        -0.0185246154
      3   7   2   0        -0.0183334880
      7   3   0   2        -0.0183334880
      2   7   0  12        -0.0182057852
      7   2  12   0        -0.0182057852
      2   7  12   0        -0.0171499558
      7   2   0  12        -0.0171499558
      3   7   0   2        -0.0171472662
      7   3   2   0        -0.0171472662
      6   6   4   4        -0.0168595514
      2   7   0   3        -0.0166327560
      7   2   3   0        -0.0166327560
      2   7   1   0        -0.0165014859
      7   2   0   1        -0.0165014859
      6   6   3   3        -0.0162400074
      4   6   4   7        -0.0162125927
      6   4   7   4        -0.0162125927
      4   5   4   5         0.0160235287
      5   4   5   4         0.0160235287
      4   7   9   0         0.0159452652
      7   4   0   9         0.0159452652
      5   6   5   7         0.0155935083
      6   5   7   5         0.0155935083
      5   7   5   9         0.0153511631
      7   5   9   5         0.0153511631
      4   7   0   9         0.0152003109
      7   4   9   0         0.0152003109
      2   7   0   1        -0.0150300616
      7   2   1   0        -0.0150300616
      4   6   4   9         0.0149353091
      6   4   9   4         0.0149353091
      7   7  11  11        -0.0148576242
      7   7   0   6         0.0148188346
      7   7   6   0         0.0148188346
      4   6   2   3        -0.0146865898
      6   4   3   2        -0.0146865898
      4   4   2   2        -0.0146733060
      2   2  12  12        -0.0145819679
      5   5   0   0        -0.0143412451
      4   7   4   9        -0.0142801960
      7   4   9   4        -0.0142801960
      5   5   4   4        -0.0141623656
      3   7   0  11         0.0140550745
      7   3  11   0         0.0140550745
      4   4   6   6        -0.0140099804
      3   5   1   5         0.0138902559
      5   3   5   1         0.0138902559
      7   7   4   4        -0.0138807980
      6   7   7   9        -0.0135868453
      7   6   9   7        -0.0135868453
      4   4   9   9        -0.0135410989
      5   6  12   0        -0.0134648858
      6   5   0  12        -0.0134648858
      3   7   0   5        -0.0133408221
      7   3   5   0        -0.0133408221
      2   7   3   0        -0.0131840379
      7   2   0   3        -0.0131840379
      6   7  10  10        -0.0131627979
      7   6  10  10        -0.0131627979
      3   5   2  12        -0.0130463783
      5   3  12   2        -0.0130463783
      4   7   6   9        -0.0130325224
      7   4   9   6        -0.0130325224
      4   4   3   3        -0.0129716016
      3   3  12  12        -0.0128407803
      3   7   1   9        -0.0127135681
      7   3   9   1        -0.0127135681
      5   6   4   3         0.0124948367
      6   5   3   4         0.0124948367
      3   7   0  14        -0.0124734423
      7   3  14   0        -0.0124734423
      4   6   6   7        -0.0124708141
      6   4   7   6        -0.0124708141
      2   2   0   0        -0.0123958562
      2   5  13  12        -0.0123607610
      5   2  12  13        -0.0123607610
      3   6   1   7        -0.0123407719
      6   3   7   1        -0.0123407719
      3   6   0  18        -0.0123353511
      6   3  18   0        -0.0123353511
      4   4   0   0        -0.0122800680
      3   7   5   0        -0.0122027410
      7   3   0   5        -0.0122027410
      3   4   1   4        -0.0121936659
      4   3   4   1        -0.0121936659
      2   7   1  10        -0.0121861113
      7   2  10   1        -0.0121861113
      6   6   2   2        -0.0121674423
      3   3   2   2        -0.0120506689
      2   7  13  10        -0.0119635667
      7   2  10  13        -0.0119635667
      2   7  13   0        -0.0119530328
      7   2   0  13        -0.0119530328
      5   7   0   3         0.0118979501
      7   5   3   0         0.0118979501
      2   7  12  10        -0.0118870976
      7   2  10  12        -0.0118870976
      4   6   9   4         0.0117728741
      6   4   4   9         0.0117728741
      4   6   3   2        -0.0117433074
      6   4   2   3        -0.0117433074
      3   3   1   1        -0.0115659088
      5   6  12   6        -0.0110254181
      6   5   6  12        -0.0110254181
      7   7  12  12        -0.0109680931
      5   5   2   2        -0.0108969019
      4   5   6   5         0.0108683308
      5   4   5   6         0.0108683308
      4   7   9  10         0.0108076315
      7   4  10   9         0.0108076315
      3   3   5   5        -0.0106844862
      6   7   7   7        -0.0106178292
      7   6   7   7        -0.0106178292
      7   7   3   3        -0.0105540948
      3   3  14  14        -0.0104969634
      5   7   3   0         0.0104846998
      7   5   0   3         0.0104846998
      4   6   4  17        -0.0104537063
      6   4  17   4        -0.0104537063
      4   4   0   4         0.0104131813
      4   4   4   0         0.0104131813
      6   6  14  14        -0.0103480214
      3   5  13   5         0.0103437235
      5   3   5  13         0.0103437235
      2   7   0  16        -0.0103315977
      7   2  16   0        -0.0103315977
      3   4  13   4        -0.0103246914
      4   3   4  13        -0.0103246914
      3   7   2  10        -0.0103009193
      7   3  10   2        -0.0103009193
      6   6   7   9         0.0103004054
      6   6   9   7         0.0103004054
      6   7   6   0        -0.0102622803
      7   6   0   6        -0.0102622803
      3   6  13   7        -0.0102228377
      6   3   7  13        -0.0102228377
      5   6  12  10        -0.0101665182
      6   5  10  12        -0.0101665182
      3   4   0  19         0.0101550912
      4   3  19   0         0.0101550912
      6   7   4   4         0.0101223243
      7   6   4   4         0.0101223243
      3   7  14   0        -0.0099633538
      7   3   0  14        -0.0099633538
      4   4  18  18        -0.0099432926
      2   5   1  12        -0.0099414285
      5   2  12   1        -0.0099414285
      5   6   5   9        -0.0099261493
      6   5   9   5        -0.0099261493
      5   5  15  15        -0.0098975546
      6   6  18  18        -0.0098869842
      6   6  16  16        -0.0097994170
      3   5   5  12        -0.0097943423
      5   3  12   5        -0.0097943423
      4   4   4  15        -0.0097754279
      4   4  15   4        -0.0097754279
      3   7   5  10        -0.0097565122
      7   3  10   5        -0.0097565122
      6   7   9   9         0.0097389634
      7   6   9   9         0.0097389634
      3   5  12   2        -0.0097324397
      5   3   2  12        -0.0097324397
      7   7   6  10         0.0097188482
      7   7  10   6         0.0097188482
      4   4  15  15        -0.0097174349
      2   4   0  18        -0.0097129444
      4   2  18   0        -0.0097129444
      5   5  20  20        -0.0097035476
      4   6  14   3        -0.0096911012
      6   4   3  14        -0.0096911012
      4   5   2   4         0.0096829667
      5   4   4   2         0.0096829667
      4   5   9  12         0.0096289877
      5   4  12   9         0.0096289877
      7   7   7   7        -0.0096179028
      3   5   3   2         0.0096097787
      5   3   2   3         0.0096097787
      4   4  14  14        -0.0095841760
      3   7  13   9        -0.0095184228
      7   3   9  13        -0.0095184228
      3   3   3   3        -0.0095140881
      3   4   0   3         0.0095017559
      4   3   3   0         0.0095017559
      6   6   9   9        -0.0095007938
      3   5   2   3         0.0094924047
      5   3   3   2         0.0094924047
      4   4  19  19        -0.0094514797
      2   2  13  13        -0.0093981257
      6   7   0  15        -0.0093677757
      7   6  15   0        -0.0093677757
      6   6  17  17        -0.0093415554
      4   6  15  17        -0.0093110513
      6   4  17  15        -0.0093110513
      4   6   3  14        -0.0092354071
      6   4  14   3        -0.0092354071
      3   7   0  26         0.0092014340
      7   3  26   0         0.0092014340
      4   6  19  18         0.0091838369
      6   4  18  19         0.0091838369
      3   5   0  20         0.0091720159
      5   3  20   0         0.0091720159
      5   7   5   7         0.0091505556
      7   5   7   5         0.0091505556
      7   7   1   1        -0.0091401967
      3   3   2  14        -0.0090063262
      3   3  14   2        -0.0090063262
      4   6  14  16        -0.0089631664
      6   4  16  14        -0.0089631664
      4   7   7   0        -0.0089434255
      7   4   0   7        -0.0089434255
      6   6   0  10        -0.0089289987
      6   6  10   0        -0.0089289987
      4   6   7   4        -0.0088998796
      6   4   4   7        -0.0088998796
      4   6  16  14        -0.0088985333
      6   4  14  16        -0.0088985333
      2   2   4   4        -0.0088785020
      2   5  12  12        -0.0088688533
      5   2  12  12        -0.0088688533
      4   4  16  16        -0.0088656520
      6   6  10  10        -0.0088387170
      5   5   4  15        -0.0087742057
      5   5  15   4        -0.0087742057
      3   6   1   9         0.0087003458
      6   3   9   1         0.0087003458
      3   7   3   9        -0.0086985701
      7   3   9   3        -0.0086985701
      2   5  11   5         0.0086865778
      5   2   5  11         0.0086865778
      3   4   5   9         0.0086447197
      4   3   9   5         0.0086447197
      6   6  15  15        -0.0085927720
      4   4   7   9         0.0085783512
      4   4   9   7         0.0085783512
      2   2   0  10        -0.0085652793
      2   2  10   0        -0.0085652793
      5   6  15  16         0.0085590001
      6   5  16  15         0.0085590001
      2   7  10  12        -0.0085550577
      7   2  12  10        -0.0085550577
      2   4  13   9         0.0085228187
      4   2   9  13         0.0085228187
      6   6  19  19        -0.0085197552
      3   3   0  10        -0.0085002961
      3   3  10   0        -0.0085002961
      2   2  12  13        -0.0084916364
      2   2  13  12        -0.0084916364
      5   7  12   6         0.0084850816
      7   5   6  12         0.0084850816
      4   4   4   6        -0.0084496533
      4   4   6   4        -0.0084496533
      3   5  11  12        -0.0084148004
      5   3  12  11        -0.0084148004
      4   7   4   8        -0.0084119430
      7   4   8   4        -0.0084119430
      3   4   1   6        -0.0084059528
      4   3   6   1        -0.0084059528
      4   5   8  12         0.0083478483
      5   4  12   8         0.0083478483
      5   5   3   3        -0.0083315225
      6   7   6  10        -0.0081735873
      7   6  10   6        -0.0081735873
      3   5   0  17        -0.0081721503
      5   3  17   0        -0.0081721503
      3   3  13  13        -0.0081585132
      7   7   7   9        -0.0080826814
      7   7   9   7        -0.0080826814
      6   6   3  16        -0.0080510793
      6   6  16   3        -0.0080510793
      5   5  21  21        -0.0080413385
      6   6   6   6        -0.0080373601
      2   7   2   9        -0.0080293644
      7   2   9   2        -0.0080293644
      2   2  10  10        -0.0080194546
      3   3   1  13        -0.0079823938
      3   3  13   1        -0.0079823938
      2   7   0  13        -0.0079703775
      7   2  13   0        -0.0079703775
      5   6   4  16         0.0079273467
      6   5  16   4         0.0079273467
      7   7   8   8        -0.0079063606
      4   7   4  20         0.0078941055
      7   4  20   4         0.0078941055
      4   6  17   4        -0.0078922434
      6   4   4  17        -0.0078922434
      5   5   3  12         0.0078554323
      5   5  12   3         0.0078554323
      2   7  10   1        -0.0078495296
      7   2   1  10        -0.0078495296
      3   6   5   4        -0.0078369897
      6   3   4   5        -0.0078369897
      3   3   9   9        -0.0078021068
      5   5   1   1        -0.0077997541
      4   4  17  17        -0.0077852413
      4   4   2  14        -0.0077653986
      4   4  14   2        -0.0077653986
      2   4  11   6        -0.0077640987
      4   2   6  11        -0.0077640987
      2   6   0  19         0.0077588259
      6   2  19   0         0.0077588259
      3   5   5   1         0.0077182304
      5   3   1   5         0.0077182304
      4   4   7   7        -0.0076924574
      5   7   5   8         0.0076851220
      7   5   8   5         0.0076851220
      5   7   0  16         0.0076639232
      7   5  16   0         0.0076639232
      5   5  17  17        -0.0076562326
      2   4   1   9         0.0076470407
      4   2   9   1         0.0076470407
      3   5   3  14         0.0076440338
      5   3  14   3         0.0076440338
      2   5   2   5         0.0076300949
      5   2   5   2         0.0076300949
      4   5   7  12        -0.0076046368
      5   4  12   7        -0.0076046368
      3   3   4   4        -0.0075859208
      6   6   2  14        -0.0075739451
      6   6  14   2        -0.0075739451
      4   5   4  21         0.0075376692
      5   4  21   4         0.0075376692
      3   5  14   3         0.0075256376
      5   3   3  14         0.0075256376
      4   6  17  15        -0.0075117928
      6   4  15  17        -0.0075117928
      4   5  14   4         0.0075096049
      5   4   4  14         0.0075096049
      6   6   4  15        -0.0074818314
      6   6  15   4        -0.0074818314
      2   2  11  11        -0.0074662265
      6   6   4  10        -0.0074605363
      6   6  10   4        -0.0074605363
      4   7   9   4        -0.0074548334
      7   4   4   9        -0.0074548334
      5   5  14  14        -0.0074507041
      7   7  19  19        -0.0074500223
      4   6  18  19         0.0074489973
      6   4  19  18         0.0074489973
      2   6  11   7        -0.0074444713
      6   2   7  11        -0.0074444713
      3   3  16  16        -0.0074205302
      6   7  22   0        -0.0074170211
      7   6   0  22        -0.0074170211
      4   7   3  11        -0.0074102031
      7   4  11   3        -0.0074102031
      2   6   2   7        -0.0074025761
      6   2   7   2        -0.0074025761
      3   6   4   2        -0.0073929438
      6   3   2   4        -0.0073929438
      3   3   2   5        -0.0073779620
      3   3   5   2        -0.0073779620
      2   5   0  22        -0.0073419597
      5   2  22   0        -0.0073419597
      5   7   0  12        -0.0072892567
      7   5  12   0        -0.0072892567
      5   6  15   3         0.0072798686
      6   5   3  15         0.0072798686
      5   6  20  18         0.0072602542
      6   5  18  20         0.0072602542
      2   7  11   9        -0.0072541470
      7   2   9  11        -0.0072541470
      4   5  16  17         0.0072469015
      5   4  17  16         0.0072469015
      3   5   0   8        -0.0072456611
      5   3   8   0        -0.0072456611
      2   6  13   4        -0.0071573452
      6   2   4  13        -0.0071573452
      2   2   7   7        -0.0071556027
      4   5  19  20        -0.0071395799
      5   4  20  19        -0.0071395799
      2   3   0   9        -0.0070924682
      3   2   9   0        -0.0070924682
      3   6  15  14        -0.0070816858
      6   3  14  15        -0.0070816858
      5   5   2  14        -0.0070758180
      5   5  14   2        -0.0070758180
      4   6   7   6        -0.0070656850
      6   4   6   7        -0.0070656850
      7   7   2   2        -0.0070578598
      3   5  14  12        -0.0070466675
      5   3  12  14        -0.0070466675
      4   5  14  15         0.0070111471
      5   4  15  14         0.0070111471
      2   4   2   6        -0.0070074413
      4   2   6   2        -0.0070074413
      2   5  12  13        -0.0070042959
      5   2  13  12        -0.0070042959
      4   7   7  10        -0.0069959059
      7   4  10   7        -0.0069959059
      6   7   4   0        -0.0069932056
      7   6   0   4        -0.0069932056
      4   4   3  16        -0.0069865801
      4   4  16   3        -0.0069865801
      6   6  11  11        -0.0069759248
      5   7   4  19         0.0069659552
      7   5  19   4         0.0069659552
      3   5   3   5         0.0069393407
      5   3   5   3         0.0069393407
      3   4  13   6        -0.0069380817
      4   3   6  13        -0.0069380817
      3   5  14  16         0.0068985748
      5   3  16  14         0.0068985748
      2   6  13  10        -0.0068483283
      6   2  10  13        -0.0068483283
      4   7   6   7        -0.0068451916
      7   4   7   6        -0.0068451916
      3   7   9   1        -0.0068439000
      7   3   1   9        -0.0068439000
      7   7   8   9        -0.0068403222
      7   7   9   8        -0.0068403222
      3   7   9   3        -0.0068291884
      7   3   3   9        -0.0068291884
      2   5  12  27        -0.0068250834
      5   2  27  12        -0.0068250834
      2   4  12   9         0.0068153852
      4   2   9  12         0.0068153852
      4   6   6   8         0.0067741095
      6   4   8   6         0.0067741095
      6   6   1   1        -0.0067530898
      3   7  10   2        -0.0067465246
      7   3   2  10        -0.0067465246
      5   5  11  11        -0.0067456595
      7   7   1   3        -0.0067289416
      7   7   3   1        -0.0067289416
      3   3  10  10        -0.0067041531
      3   5  16  14         0.0067041035
      5   3  14  16         0.0067041035
      5   7   2   9         0.0067008892
      7   5   9   2         0.0067008892
      2   2   1  13        -0.0066695935
      2   2  13   1        -0.0066695935
      2   6   1  10        -0.0066667017
      6   2  10   1        -0.0066667017
      2   2  15  15        -0.0066519374
      3   6  18   0        -0.0066017931
      6   3   0  18        -0.0066017931
      2   2   4  15        -0.0065950792
      2   2  15   4        -0.0065950792
      3   6  13   9         0.0065690926
      6   3   9  13         0.0065690926
      4   7   8  10         0.0065678623
      7   4  10   8         0.0065678623
      4   6   9   6         0.0065638374
      6   4   6   9         0.0065638374
      7   7  20  20        -0.0065305678
      6   6   6  10        -0.0065032234
      6   6  10   6        -0.0065032234
      5   7  15  19         0.0064746321
      7   5  19  15         0.0064746321
      5   6  17  14         0.0064722812
      6   5  14  17         0.0064722812
      3   6   5  10        -0.0064647501
      6   3  10   5        -0.0064647501
      3   6   3   7        -0.0064577770
      6   3   7   3        -0.0064577770
      4   7   3   2         0.0064522578
      7   4   2   3         0.0064522578
      7   7   1  12        -0.0064282281
      7   7  12   1        -0.0064282281
      2   7  10   3        -0.0064264687
      7   2   3  10        -0.0064264687
      2   7  10  13        -0.0064066835
      7   2  13  10        -0.0064066835
      2   3   2   3        -0.0063954823
      3   2   3   2        -0.0063954823
      3   3  19  19        -0.0063847919
      3   7   1   8        -0.0063773701
      7   3   8   1        -0.0063773701
      5   5  22  22        -0.0063743066
      3   4   2   9         0.0063683175
      4   3   9   2         0.0063683175
      4   7   0  17        -0.0063608354
      7   4  17   0        -0.0063608354
      7   7  18  18        -0.0063512185
      3   4   4  13        -0.0063477871
      4   3  13   4        -0.0063477871
      5   6   1   4         0.0063183973
      6   5   4   1         0.0063183973
      2   7   0  23        -0.0063152834
      7   2  23   0        -0.0063152834
      3   3  17  17        -0.0062826112
      3   3  18  18        -0.0062823617
      4   6   7  10        -0.0062614865
      6   4  10   7        -0.0062614865
      4   5   3   9        -0.0062612263
      5   4   9   3        -0.0062612263
      3   4   0  16         0.0062516257
      4   3  16   0         0.0062516257
      3   5  12  21         0.0062500497
      5   3  21  12         0.0062500497
      4   6   0  17         0.0062473943
      6   4  17   0         0.0062473943
      3   3   3  16        -0.0062420710
      3   3  16   3        -0.0062420710
      2   2   1  12        -0.0062303738
      2   2  12   1        -0.0062303738
      5   5   0   4         0.0062157956
      5   5   4   0         0.0062157956
      2   7  11   7        -0.0062155290
      7   2   7  11        -0.0062155290
      7   7   5   5        -0.0062011787
      5   7  13   0        -0.0061923444
      7   5   0  13        -0.0061923444
      4   6   9  10         0.0061921721
      6   4  10   9         0.0061921721
      4   7   8   0         0.0061921199
      7   4   0   8         0.0061921199
      3   4   5   7        -0.0061830366
      4   3   7   5        -0.0061830366
      5   7   1   4        -0.0061770174
      7   5   4   1        -0.0061770174
      4   5   3  17         0.0061759880
      5   4  17   3         0.0061759880
      4   7   9   6        -0.0061678115
      7   4   6   9        -0.0061678115
      4   4   0  15         0.0061611681
      4   4  15   0         0.0061611681
      3   3  15  15        -0.0061590393
      3   5   0   9         0.0061473850
      5   3   9   0         0.0061473850
      3   4  17  14        -0.0061440142
      4   3  14  17        -0.0061440142
      4   6   6   9         0.0061268453
      6   4   9   6         0.0061268453
      3   4   4   3        -0.0061210629
      4   3   3   4        -0.0061210629
      2   2  20  20        -0.0061069126
      3   7  12  20         0.0060972721
      7   3  20  12         0.0060972721
      3   4  15  16        -0.0060852464
      4   3  16  15        -0.0060852464
      7   7  13  13        -0.0060827975
      2   3   1   5        -0.0060784415
      3   2   5   1        -0.0060784415
      4   5  15  11        -0.0060736034
      5   4  11  15        -0.0060736034
      3   4   3   4        -0.0060728415
      4   3   4   3        -0.0060728415
      5   5   5  21        -0.0060542299
      5   5  21   5        -0.0060542299
      2   6   4   1        -0.0060400134
      6   2   1   4        -0.0060400134
      3   6   2   6        -0.0060384085
      6   3   6   2        -0.0060384085
      4   5  14   0        -0.0060362283
      5   4   0  14        -0.0060362283
      3   6   4   5        -0.0060282343
      6   3   5   4        -0.0060282343
      2   2   1   1        -0.0060251410
      6   7   7   8        -0.0060144861
      7   6   8   7        -0.0060144861
      6   7   4  10        -0.0060135703
      7   6  10   4        -0.0060135703
      3   7  14  10        -0.0060022265
      7   3  10  14        -0.0060022265
      4   7   6   8        -0.0060006753
      7   4   8   6        -0.0060006753
      3   6   4  14        -0.0059904616
      6   3  14   4        -0.0059904616
      3   7   1   7        -0.0059839346
      7   3   7   1        -0.0059839346
      4   7  15  20         0.0059832679
      7   4  20  15         0.0059832679
      7   7   0  15        -0.0059803144
      7   7  15   0        -0.0059803144
      2   7   3  10        -0.0059548300
      7   2  10   3        -0.0059548300
      3   4  19   0         0.0059526429
      4   3   0  19         0.0059526429
      2   5  27  12        -0.0059382845
      5   2  12  27        -0.0059382845
      2   6   4  13        -0.0059226307
      6   2  13   4        -0.0059226307
      7   7   3  12        -0.0059188214
      7   7  12   3        -0.0059188214
      2   4  13   7        -0.0059151671
      4   2   7  13        -0.0059151671
      4   7   4   7        -0.0059110603
      7   4   7   4        -0.0059110603
      2   2   9   9        -0.0059034430
      3   3  11  11        -0.0059008222
      3   3  20  20        -0.0058911788
      6   6  13  13        -0.0058826889
      4   4  11  11        -0.0058515475
      4   4   9  17         0.0058480983
      4   4  17   9         0.0058480983
      4   7  18  12        -0.0058470295
      7   4  12  18        -0.0058470295
      4   6  11  16         0.0058402018
      6   4  16  11         0.0058402018
      2   6  12  10        -0.0058288288
      6   2  10  12        -0.0058288288
      2   4  18   0        -0.0058276766
      4   2   0  18        -0.0058276766
      3   7  13   7        -0.0058224996
      7   3   7  13        -0.0058224996
      4   4   1   1        -0.0058215669
      4   6  16  11         0.0058125506
      6   4  11  16         0.0058125506
      7   7  26  26        -0.0058069555
      7   7   6   6        -0.0057995741
      2   6   1   4        -0.0057885706
      6   2   4   1        -0.0057885706
      2   7  23   0        -0.0057749147
      7   2   0  23        -0.0057749147
      4   7  18  19        -0.0057742321
      7   4  19  18        -0.0057742321
      3   6   7   1        -0.0057627979
      6   3   1   7        -0.0057627979
      5   7  16   0         0.0057543507
      7   5   0  16         0.0057543507
      2   2  18  18        -0.0057336962
      3   3   3  12         0.0057219371
      3   3  12   3         0.0057219371
      2   3   3   2        -0.0057214103
      3   2   2   3        -0.0057214103
      5   7  12  15        -0.0056980284
      7   5  15  12        -0.0056980284
      3   4   2  24        -0.0056733588
      4   3  24   2        -0.0056733588
      5   5  13  13        -0.0056706424
      6   7   8   9         0.0056561131
      7   6   9   8         0.0056561131
      5   6  13   0        -0.0056526902
      6   5   0  13        -0.0056526902
      4   5   2   0        -0.0056470337
      5   4   0   2        -0.0056470337
      2   3  13   5        -0.0056412282
      3   2   5  13        -0.0056412282
      5   7  10  12        -0.0056283513
      7   5  12  10        -0.0056283513
      4   6   8   0         0.0056241024
      6   4   0   8         0.0056241024
      2   6   4  12        -0.0056239871
      6   2  12   4        -0.0056239871
      4   4  13  13        -0.0056231331
      3   6   5   6        -0.0056182825
      6   3   6   5        -0.0056182825
      6   6  24  24        -0.0056118624
      3   6  14   4        -0.0056057121
      6   3   4  14        -0.0056057121
      5   6   0   3        -0.0056043008
      6   5   3   0        -0.0056043008
      6   7  17  20         0.0056038229
      7   6  20  17         0.0056038229
      5   6   3   4         0.0056011200
      6   5   4   3         0.0056011200
      3   5  12  14        -0.0055878254
      5   3  14  12        -0.0055878254
      4   5   0   5        -0.0055815476
      5   4   5   0        -0.0055815476
      2   5   2   2         0.0055566605
      5   2   2   2         0.0055566605
      2   3   7  10        -0.0055561224
      3   2  10   7        -0.0055561224
      5   7  20  26        -0.0055486201
      7   5  26  20        -0.0055486201
      3   6   2   4        -0.0055412798
      6   3   4   2        -0.0055412798
      2   6  13   6        -0.0055078351
      6   2   6  13        -0.0055078351
      3   3  21  21        -0.0055068973
      3   3   5  14        -0.0055053013
      3   3  14   5        -0.0055053013
      4   6  17   0         0.0054996848
      6   4   0  17         0.0054996848
      6   6   0   6        -0.0054989549
      6   6   6   0        -0.0054989549
      6   7   9   8         0.0054897306
      7   6   8   9         0.0054897306
      3   5   2  16         0.0054895862
      5   3  16   2         0.0054895862
      4   6   8   6         0.0054890117
      6   4   6   8         0.0054890117
      5   5   0  15         0.0054884779
      5   5  15   0         0.0054884779
      5   7  21  20        -0.0054791004
      7   5  20  21        -0.0054791004
      3   4   4   1        -0.0054773317
      4   3   1   4        -0.0054773317
      3   5  10  20         0.0054725520
      5   3  20  10         0.0054725520
      5   6  11  17        -0.0054579745
      6   5  17  11        -0.0054579745
      6   6  12  12        -0.0054503882
      3   6   2  10        -0.0054493623
      6   3  10   2        -0.0054493623
      3   4   2   7        -0.0054449547
      4   3   7   2        -0.0054449547
      4   7   0  20        -0.0054364946
      7   4  20   0        -0.0054364946
      3   6  17  16        -0.0054333039
      6   3  16  17        -0.0054333039
      2   4   9   1         0.0054326961
      4   2   1   9         0.0054326961
      3   4   3   6        -0.0054250793
      4   3   6   3        -0.0054250793
      3   4   9   5         0.0054211137
      4   3   5   9         0.0054211137
      2   3   2  13        -0.0054189305
      3   2  13   2        -0.0054189305
      4   5  18  22        -0.0054094104
      5   4  22  18        -0.0054094104
      5   5   7   7        -0.0054068832
      2   6  12   4        -0.0054066006
      6   2   4  12        -0.0054066006
      6   6  23  23        -0.0054043702
      4   4  12  12        -0.0053972799
      2   4   2   4        -0.0053815776
      4   2   4   2        -0.0053815776
      4   6   2  16        -0.0053705252
      6   4  16   2        -0.0053705252
      2   4   1   7        -0.0053507482
      4   2   7   1        -0.0053507482
      2   3  18  19         0.0053488528
      3   2  19  18         0.0053488528
      5   5  16  16        -0.0053473043
      2   2  17  17        -0.0053411731
      2   6   1   0        -0.0053371095
      6   2   0   1        -0.0053371095
      6   6  21  21        -0.0053256165
      2   3  14   3        -0.0052952515
      3   2   3  14        -0.0052952515
      2   7  16   0        -0.0052935725
      7   2   0  16        -0.0052935725
      3   7  10  26         0.0052914949
      7   3  26  10         0.0052914949
      3   6  14  15        -0.0052838792
      6   3  15  14        -0.0052838792
      6   6   3  13        -0.0052833363
      6   6  13   3        -0.0052833363
      4   4  21  21        -0.0052827065
      4   5   3   7         0.0052796266
      5   4   7   3         0.0052796266
      3   7  10  14        -0.0052726316
      7   3  14  10        -0.0052726316
      3   6  12  24         0.0052677325
      6   3  24  12         0.0052677325
      3   6  21   4        -0.0052621623
      6   3   4  21        -0.0052621623
      2   3   3  14        -0.0052610800
      3   2  14   3        -0.0052610800
      3   6  12  17        -0.0052590207
      6   3  17  12        -0.0052590207
      3   6   7  13        -0.0052580713
      6   3  13   7        -0.0052580713
      3   6   3  24        -0.0052451073
      6   3  24   3        -0.0052451073
      5   5   3  16        -0.0052427635
      5   5  16   3        -0.0052427635
      3   3   3  13        -0.0052305618
      3   3  13   3        -0.0052305618
      4   4  24  24        -0.0052141890
      2   3   2   1        -0.0052130170
      3   2   1   2        -0.0052130170
      4   7   3   5         0.0052123877
      7   4   5   3         0.0052123877
      3   7  10   5        -0.0052075539
      7   3   5  10        -0.0052075539
      5   6  16  15         0.0052056203
      6   5  15  16         0.0052056203
      3   6  20  19         0.0052019308
      6   3  19  20         0.0052019308
      5   7   9   5         0.0051878351
      7   5   5   9         0.0051878351
      2   6   1   6        -0.0051845003
      6   2   6   1        -0.0051845003
      4   6   0   9        -0.0051776949
      6   4   9   0        -0.0051776949
      3   4  12  15        -0.0051746591
      4   3  15  12        -0.0051746591
      3   7  11  10        -0.0051663539
      7   3  10  11        -0.0051663539
      4   6   2  13        -0.0051619135
      6   4  13   2        -0.0051619135
      4   5   6   2         0.0051523272
      5   4   2   6         0.0051523272
      3   5  17   0        -0.0051366547
      5   3   0  17        -0.0051366547
      5   7  23   0        -0.0051309826
      7   5   0  23        -0.0051309826
      4   5  15  21         0.0051292672
      5   4  21  15         0.0051292672
      6   7   3  19        -0.0051168211
      7   6  19   3        -0.0051168211
      6   6   7  17        -0.0051155249
      6   6  17   7        -0.0051155249
      2   2   5   5        -0.0051144876
      2   5   5  11         0.0051143928
      5   2  11   5         0.0051143928
      2   5   3   3         0.0051002928
      5   2   3   3         0.0051002928
      2   4   9  13         0.0050841443
      4   2  13   9         0.0050841443
      6   6   5   5        -0.0050719360
      7   7   7   8        -0.0050672256
      7   7   8   7        -0.0050672256
      2   3  13   2        -0.0050648411
      3   2   2  13        -0.0050648411
      7   7   3  16        -0.0050634978
      7   7  16   3        -0.0050634978
      5   5  27  27        -0.0050581703
      3   5   0   7        -0.0050556646
      5   3   7   0        -0.0050556646
      2   6  12   0        -0.0050512593
      6   2   0  12        -0.0050512593
      4   5  11  15        -0.0050429487
      5   4  15  11        -0.0050429487
      3   5  16   2         0.0050374809
      5   3   2  16         0.0050374809
      2   3  19  18         0.0050373735
      3   2  18  19         0.0050373735
      2   5   4  15        -0.0050277774
      5   2  15   4        -0.0050277774
      6   7  18  11         0.0050211074
      7   6  11  18         0.0050211074
      2   4  12  17        -0.0050203135
      4   2  17  12        -0.0050203135
      6   7  18  26         0.0050169772
      7   6  26  18         0.0050169772
      3   4  14  17        -0.0050148715
      4   3  17  14        -0.0050148715
      3   4   9   2         0.0050116532
      4   3   2   9         0.0050116532
      7   7   5  11         0.0050059236
      7   7  11   5         0.0050059236
      5   5  11  21         0.0050033329
      5   5  21  11         0.0050033329
      5   6   2  24         0.0050031849
      6   5  24   2         0.0050031849
      3   5  20   0         0.0049835661
      5   3   0  20         0.0049835661
      5   6   0  19        -0.0049813288
      6   5  19   0        -0.0049813288
      3   6  11   6        -0.0049576679
      6   3   6  11        -0.0049576679
      5   6  12  22        -0.0049569591
      6   5  22  12        -0.0049569591
      4   4  23  23        -0.0049539498
      5   7   9   2         0.0049493573
      7   5   2   9         0.0049493573
      2   2   2   2        -0.0049493338
      5   6  21  17         0.0049452275
      6   5  17  21         0.0049452275
      3   3  24  24        -0.0049418799
      6   6   8   8        -0.0049358468
      3   6   2  22        -0.0049324961
      6   3  22   2        -0.0049324961
      2   5   7  20         0.0049304062
      5   2  20   7         0.0049304062
      6   6  11  14         0.0049302841
      6   6  14  11         0.0049302841
      3   6  10  18        -0.0049293523
      6   3  18  10        -0.0049293523
      4   7  19  26        -0.0049214229
      7   4  26  19        -0.0049214229
      4   7   3  14         0.0049195890
      7   4  14   3         0.0049195890
      3   3  22  22        -0.0049098534
      2   2  21  21        -0.0049010850
      5   5   1  13        -0.0048925275
      5   5  13   1        -0.0048925275
      7   7   0  25        -0.0048865758
      7   7  25   0        -0.0048865758
      6   6  25  25        -0.0048683629
      2   3   4   9         0.0048665668
      3   2   9   4         0.0048665668
      7   7   1  13        -0.0048652089
      7   7  13   1        -0.0048652089
      5   6   9   2        -0.0048613983
      6   5   2   9        -0.0048613983
      6   6   7   8         0.0048520803
      6   6   8   7         0.0048520803
      7   7   0  28        -0.0048404694
      7   7  28   0        -0.0048404694
      3   5   5   3         0.0048329404
      5   3   3   5         0.0048329404
      3   5   8   0        -0.0048302679
      5   3   0   8        -0.0048302679
      3   6  15  11         0.0048282496
      6   3  11  15         0.0048282496
      2   3   0  17         0.0048263362
      3   2  17   0         0.0048263362
      2   3   9   0        -0.0048195231
      3   2   0   9        -0.0048195231
      3   3   7   7        -0.0048188031
      2   7  14   9        -0.0048148550
      7   2   9  14        -0.0048148550
      4   7   2   3         0.0048025544
      7   4   3   2         0.0048025544
      6   6   9  17         0.0048006041
      6   6  17   9         0.0048006041
      3   3   1   3        -0.0047994534
      3   3   3   1        -0.0047994534
      2   3  14  16        -0.0047937252
      3   2  16  14        -0.0047937252
      2   5   0  25        -0.0047934731
      5   2  25   0        -0.0047934731
      5   7   4  12         0.0047740753
      7   5  12   4         0.0047740753
      4   6  13   2        -0.0047567417
      6   4   2  13        -0.0047567417
      3   6   9   1         0.0047502187
      6   3   1   9         0.0047502187
      3   4   9  18        -0.0047474968
      4   3  18   9        -0.0047474968
      2   7   2   7        -0.0047089076
      7   2   7   2        -0.0047089076
      4   5  17  16         0.0047076893
      5   4  16  17         0.0047076893
      6   7  14  11        -0.0046908721
      7   6  11  14        -0.0046908721
      2   2  19  19        -0.0046896979
      2   5  14  14         0.0046867233
      5   2  14  14         0.0046867233
      2   6  19   0         0.0046804652
      6   2   0  19         0.0046804652
      2   5  14   5         0.0046797819
      5   2   5  14         0.0046797819
      3   3   0  22         0.0046797188
      3   3  22   0         0.0046797188
      6   6   1  13        -0.0046746983
      6   6  13   1        -0.0046746983
      4   4  22  22        -0.0046688003
      4   5  24  12        -0.0046661402
      5   4  12  24        -0.0046661402
      2   6  10  19         0.0046647946
      6   2  19  10         0.0046647946
      3   3   6   6        -0.0046499157
      4   4   8   8        -0.0046450672
      1   1  42  42        -0.0046437370
      0   0  42  42        -0.0046403473
      1   1  43  43        -0.0046402004
      0   1  42  43        -0.0046398918
      1   0  43  42        -0.0046398918
      0   1  43  42        -0.0046398276
      1   0  42  43        -0.0046398276
      4   6   5   1        -0.0046395754
      6   4   1   5        -0.0046395754
      6   7   2  11        -0.0046392348
      7   6  11   2        -0.0046392348
      0   0  43  43        -0.0046368900
      4   6  20   4        -0.0046291589
      6   4   4  20        -0.0046291589
      3   4  14   9         0.0046277290
      4   3   9  14         0.0046277290
      3   4  12   6         0.0046260976
      4   3   6  12         0.0046260976
      4   6  21  23         0.0046229310
      6   4  23  21         0.0046229310
      6   6   0  15         0.0046225805
      6   6  15   0         0.0046225805
      5   7   8  11         0.0046220370
      7   5  11   8         0.0046220370
      3   6   9  23        -0.0046214900
      6   3  23   9        -0.0046214900
      2   5  12  35        -0.0046200121
      5   2  35  12        -0.0046200121
      3   7  13   8        -0.0046190414
      7   3   8  13        -0.0046190414
      4   6  15   9         0.0046111711
      6   4   9  15         0.0046111711
      4   7  18   1        -0.0046109543
      7   4   1  18        -0.0046109543
      3   4  16  15        -0.0046091646
      4   3  15  16        -0.0046091646
      3   5   9  22        -0.0046075150
      5   3  22   9        -0.0046075150
      2   3  16  14        -0.0046020346
      3   2  14  16        -0.0046020346
      4   6   1   5        -0.0045900250
      6   4   5   1        -0.0045900250
      5   6   2   7         0.0045893221
      6   5   7   2         0.0045893221
      3   4  10  19         0.0045763511
      4   3  19  10         0.0045763511
      4   6  16   2        -0.0045699543
      6   4   2  16        -0.0045699543
      5   6  16   4         0.0045668128
      6   5   4  16         0.0045668128
      3   6  11   0        -0.0045621526
      6   3   0  11        -0.0045621526
      3   6  16  17        -0.0045608685
      6   3  17  16        -0.0045608685
      4   5   9   3        -0.0045598326
[...]
      6   0   6  16        -0.0000014209
      3   5  43  18         0.0000014060
      5   3  18  43         0.0000014060
      6   7  43   1         0.0000013929
      7   6   1  43         0.0000013929
      0   6  43  32        -0.0000013907
      6   0  32  43        -0.0000013907
      1   4  42   7         0.0000013888
      4   1   7  42         0.0000013888
      1   4   9  14        -0.0000013622
      4   1  14   9        -0.0000013622
      0   0  16  19        -0.0000013466
      0   0  19  16        -0.0000013466
      1   1  30  34        -0.0000013419
      1   1  34  30        -0.0000013419
      2   3  42  19        -0.0000013294
      3   2  19  42        -0.0000013294
      1   6  25  14         0.0000013272
      6   1  14  25         0.0000013272
      0   4  43  17         0.0000013255
      4   0  17  43         0.0000013255
      1   4  37  20        -0.0000013077
      4   1  20  37        -0.0000013077
      0   0  30  34        -0.0000012926
      0   0  34  30        -0.0000012926
      0   7  24  14         0.0000012903
      7   0  14  24         0.0000012903
      2   2  18  34         0.0000012689
      2   2  34  18         0.0000012689
      4   7  35  26        -0.0000012669
      7   4  26  35        -0.0000012669
      2   4  41  17         0.0000012640
      4   2  17  41         0.0000012640
      3   5  31  42         0.0000012608
      5   3  42  31         0.0000012608
      6   7  24   7        -0.0000012604
      7   6   7  24        -0.0000012604
      0   2  11  34        -0.0000012582
      2   0  34  11        -0.0000012582
      0   3  37  27        -0.0000012452
      3   0  27  37        -0.0000012452
      3   7  42  32         0.0000012366
      7   3  32  42         0.0000012366
      0   4  11  10         0.0000012315
      4   0  10  11         0.0000012315
      0   4  25  34        -0.0000012233
      4   0  34  25        -0.0000012233
      0   0  18  18        -0.0000012153
      0   1  27  26        -0.0000012134
      1   0  26  27        -0.0000012134
      0   5  30  18        -0.0000012057
      5   0  18  30        -0.0000012057
      1   1  16  19        -0.0000011993
      1   1  19  16        -0.0000011993
      0   0  16  35         0.0000011934
      0   0  35  16         0.0000011934
      1   1   3  23        -0.0000011891
      1   1  23   3        -0.0000011891
      0   1  19  26        -0.0000011872
      1   0  26  19        -0.0000011872
      4   6  40  13        -0.0000011853
      6   4  13  40        -0.0000011853
      0   4  35  17        -0.0000011768
      4   0  17  35        -0.0000011768
      0   6  29  11         0.0000011687
      6   0  11  29         0.0000011687
      0   3  32  33        -0.0000011518
      3   0  33  32        -0.0000011518
      1   6  30  28         0.0000011488
      6   1  28  30         0.0000011488
      3   3  26  42         0.0000011475
      3   3  42  26         0.0000011475
      1   5  20   6        -0.0000011318
      5   1   6  20        -0.0000011318
      1   4  29   5         0.0000011311
      4   1   5  29         0.0000011311
      6   7  27  43         0.0000011230
      7   6  43  27         0.0000011230
      0   5  21  42         0.0000011074
      5   0  42  21         0.0000011074
      3   7  42  38         0.0000010956
      7   3  38  42         0.0000010956
      0   3   1  26         0.0000010952
      3   0  26   1         0.0000010952
      0   6  42   7        -0.0000010924
      6   0   7  42        -0.0000010924
      3   5  18  43         0.0000010829
      5   3  43  18         0.0000010829
      0   3  18  27        -0.0000010766
      3   0  27  18        -0.0000010766
      1   4   2   8         0.0000010755
      4   1   8   2         0.0000010755
      0   5  18   5        -0.0000010741
      5   0   5  18        -0.0000010741
      0   3  22  17        -0.0000010714
      3   0  17  22        -0.0000010714
      1   7  15  34        -0.0000010665
      7   1  34  15        -0.0000010665
      1   3  30  11        -0.0000010648
      3   1  11  30        -0.0000010648
      1   5  24   4         0.0000010614
      5   1   4  24         0.0000010614
      3   5  42  43         0.0000010393
      5   3  43  42         0.0000010393
      1   5  43  30         0.0000010221
      5   1  30  43         0.0000010221
      1   3   2  18        -0.0000010116
      3   1  18   2        -0.0000010116
      2   7  43   6        -0.0000010049
      7   2   6  43        -0.0000010049
      0   4  43   9        -0.0000009914
      4   0   9  43        -0.0000009914
      1   1  18  18        -0.0000009797
      1   5  18  43         0.0000009793
      5   1  43  18         0.0000009793
      1   5  11  19        -0.0000009718
      5   1  19  11        -0.0000009718
      0   6  43  22        -0.0000009651
      6   0  22  43        -0.0000009651
      0   3  18  35        -0.0000009603
      3   0  35  18        -0.0000009603
      3   7  42  25        -0.0000009560
      7   3  25  42        -0.0000009560
      6   7  42  21         0.0000009494
      7   6  21  42         0.0000009494
      2   4  42   4         0.0000009487
      4   2   4  42         0.0000009487
      1   2  20   0         0.0000009392
      2   1   0  20         0.0000009392
      0   4  17   3        -0.0000009386
      4   0   3  17        -0.0000009386
      0   4  31  20         0.0000009374
      4   0  20  31         0.0000009374
      1   4  42   9        -0.0000009135
      4   1   9  42        -0.0000009135
      1   3  25   4         0.0000009133
      3   1   4  25         0.0000009133
      4   7  41  42        -0.0000008990
      7   4  42  41        -0.0000008990
      0   4  39   3         0.0000008962
      4   0   3  39         0.0000008962
      0   2  18  14        -0.0000008956
      2   0  14  18        -0.0000008956
      0   6  43  10         0.0000008924
      6   0  10  43         0.0000008924
      1   6  11  25         0.0000008903
      6   1  25  11         0.0000008903
      2   4  31   7        -0.0000008889
      4   2   7  31        -0.0000008889
      0   5  18  42         0.0000008828
      5   0  42  18         0.0000008828
      0   1  19   5        -0.0000008786
      1   0   5  19        -0.0000008786
      0   3  26   1        -0.0000008779
      3   0   1  26        -0.0000008779
      1   3  21  18        -0.0000008707
      3   1  18  21        -0.0000008707
      0   4  42   4         0.0000008687
      4   0   4  42         0.0000008687
      0   1  18  16         0.0000008652
      1   0  16  18         0.0000008652
      0   1  16  18         0.0000008651
      1   0  18  16         0.0000008651
      1   2  14   3         0.0000008552
      2   1   3  14         0.0000008552
      1   2  18  13        -0.0000008515
      2   1  13  18        -0.0000008515
      1   1  18  37        -0.0000008514
      1   1  37  18        -0.0000008514
      0   6  41  22        -0.0000008509
      6   0  22  41        -0.0000008509
      1   6  15  14        -0.0000008480
      6   1  14  15        -0.0000008480
      0   7  20  42        -0.0000008451
      7   0  42  20        -0.0000008451
      0   6  43  15         0.0000008437
      6   0  15  43         0.0000008437
      0   3  15  24        -0.0000008434
      3   0  24  15        -0.0000008434
      1   6  33  31        -0.0000008420
      6   1  31  33        -0.0000008420
      1   5   7  22         0.0000008311
      5   1  22   7         0.0000008311
      1   5  13  30        -0.0000008293
      5   1  30  13        -0.0000008293
      1   5  30  43         0.0000008291
      5   1  43  30         0.0000008291
      1   5   3  18        -0.0000008144
      5   1  18   3        -0.0000008144
      0   4  42   6        -0.0000008144
      4   0   6  42        -0.0000008144
      1   5  30  23        -0.0000008143
      5   1  23  30        -0.0000008143
      0   4  42  28        -0.0000008102
      4   0  28  42        -0.0000008102
      5   6  42   7        -0.0000008013
      6   5   7  42        -0.0000008013
      5   7  42  24        -0.0000007913
      7   5  24  42        -0.0000007913
      4   6  12  42         0.0000007912
      6   4  42  12         0.0000007912
      0   7  32   3         0.0000007892
      7   0   3  32         0.0000007892
      0   7  24  21        -0.0000007856
      7   0  21  24        -0.0000007856
      1   7  43  24         0.0000007797
      7   1  24  43         0.0000007797
      0   4  43  29         0.0000007733
      4   0  29  43         0.0000007733
      0   4  43   7         0.0000007684
      4   0   7  43         0.0000007684
      1   5  19  42         0.0000007661
      5   1  42  19         0.0000007661
      1   4  24  14         0.0000007583
      4   1  14  24         0.0000007583
      0   6  43  28        -0.0000007583
      6   0  28  43        -0.0000007583
      1   6  30   6         0.0000007542
      6   1   6  30         0.0000007542
      2   6  43   4         0.0000007532
      6   2   4  43         0.0000007532
      1   7  35   7        -0.0000007450
      7   1   7  35        -0.0000007450
      0   4  28  34         0.0000007345
      4   0  34  28         0.0000007345
      2   3  34  13        -0.0000007265
      3   2  13  34        -0.0000007265
      4   7  43  37         0.0000007243
      7   4  37  43         0.0000007243
      1   5  30   1         0.0000007214
      5   1   1  30         0.0000007214
      7   7  36  43        -0.0000007172
      7   7  43  36        -0.0000007172
      0   4  15  30        -0.0000007156
      4   0  30  15        -0.0000007156
      1   5  40  19         0.0000007116
      5   1  19  40         0.0000007116
      0   7  43  10         0.0000007106
      7   0  10  43         0.0000007106
      0   6   3  38        -0.0000007060
      6   0  38   3        -0.0000007060
      1   7  42  28        -0.0000006833
      7   1  28  42        -0.0000006833
      1   7  24  13         0.0000006793
      7   1  13  24         0.0000006793
      0   2  30  37        -0.0000006715
      2   0  37  30        -0.0000006715
      2   5  43   1        -0.0000006667
      5   2   1  43        -0.0000006667
      2   3  30  43        -0.0000006645
      3   2  43  30        -0.0000006645
      5   7  40  39         0.0000006552
      7   5  39  40         0.0000006552
      1   3  11  30        -0.0000006402
      3   1  30  11        -0.0000006402
      1   5  43  37        -0.0000006358
      5   1  37  43        -0.0000006358
      1   5  42  19        -0.0000006349
      5   1  19  42        -0.0000006349
      6   7  42  37         0.0000006317
      7   6  37  42         0.0000006317
      2   4  42  10         0.0000006311
      4   2  10  42         0.0000006311
      4   4  30  42         0.0000006299
      4   4  42  30         0.0000006299
      3   7  43   7        -0.0000006295
      7   3   7  43        -0.0000006295
      1   4  29  11         0.0000006263
      4   1  11  29         0.0000006263
      5   7  43   4        -0.0000006155
      7   5   4  43        -0.0000006155
      1   4  43  25         0.0000006118
      4   1  25  43         0.0000006118
      0   4  25  42        -0.0000006093
      4   0  42  25        -0.0000006093
      6   7   2  42         0.0000006053
      7   6  42   2         0.0000006053
      1   7  43   7         0.0000005883
      7   1   7  43         0.0000005883
      0   5   2  18        -0.0000005802
      5   0  18   2        -0.0000005802
      0   4  42  22         0.0000005734
      4   0  22  42         0.0000005734
      6   7  25   0        -0.0000005364
      7   6   0  25        -0.0000005364
      0   6  43   6        -0.0000005284
      6   0   6  43        -0.0000005284
      1   5  34  36        -0.0000005264
      5   1  36  34        -0.0000005264
      0   6  13  25         0.0000005196
      6   0  25  13         0.0000005196
      0   6  42   9        -0.0000005096
      6   0   9  42        -0.0000005096
      0   4  42  10         0.0000005080
      4   0  10  42         0.0000005080
      0   1   5  19        -0.0000005079
      1   0  19   5        -0.0000005079
      1   5  18  12         0.0000005073
      5   1  12  18         0.0000005073
      0   4  31   8        -0.0000005059
      4   0   8  31        -0.0000005059
      6   7  42   2         0.0000005034
      7   6   2  42         0.0000005034
      0   5  43  16         0.0000005014
      5   0  16  43         0.0000005014
      1   4  42  20        -0.0000004959
      4   1  20  42        -0.0000004959
      0   2   4  25         0.0000004881
      2   0  25   4         0.0000004881
      1   4  43   6        -0.0000004868
      4   1   6  43        -0.0000004868
      1   5   2  16        -0.0000004846
      5   1  16   2        -0.0000004846
      1   5  43  18         0.0000004687
      5   1  18  43         0.0000004687
      3   5  42  19        -0.0000004656
      5   3  19  42        -0.0000004656
      0   6  42   8        -0.0000004560
      6   0   8  42        -0.0000004560
      1   3   3  35         0.0000004544
      3   1  35   3         0.0000004544
      0   4  36  20        -0.0000004531
      4   0  20  36        -0.0000004531
      0   5  43  19        -0.0000004525
      5   0  19  43        -0.0000004525
      0   0  18  37        -0.0000004252
      0   0  37  18        -0.0000004252
      1   6  18  38        -0.0000004072
      6   1  38  18        -0.0000004072
      2   6  42  29         0.0000004000
      6   2  29  42         0.0000004000
      1   6  17  35        -0.0000003977
      6   1  35  17        -0.0000003977
      0   5  30  42         0.0000003977
      5   0  42  30         0.0000003977
      1   2  41  18         0.0000003852
      2   1  18  41         0.0000003852
      1   5  19   5        -0.0000003843
      5   1   5  19        -0.0000003843
      1   2  29  25         0.0000003794
      2   1  25  29         0.0000003794
      0   7  28  35         0.0000003773
      7   0  35  28         0.0000003773
      7   7  34  42         0.0000003736
      7   7  42  34         0.0000003736
      1   7  18  28        -0.0000003699
      7   1  28  18        -0.0000003699
      1   6  30  25        -0.0000003685
      6   1  25  30        -0.0000003685
      1   6  30  22        -0.0000003663
      6   1  22  30        -0.0000003663
      1   5  19  37         0.0000003650
      5   1  37  19         0.0000003650
      1   7  24  43         0.0000003540
      7   1  43  24         0.0000003540
      0   4  43   8         0.0000003493
      4   0   8  43         0.0000003493
      0   0   5  30        -0.0000003487
      0   0  30   5        -0.0000003487
      1   7  43  33         0.0000003418
      7   1  33  43         0.0000003418
      0   5  42  18        -0.0000003375
      5   0  18  42        -0.0000003375
      6   7  42  11        -0.0000003212
      7   6  11  42        -0.0000003212
      2   5  42  37         0.0000003141
      5   2  37  42         0.0000003141
      2   2  31  43         0.0000002976
      2   2  43  31         0.0000002976
      4   7  38   8        -0.0000002972
      7   4   8  38        -0.0000002972
      2   7  24  42         0.0000002923
      7   2  42  24         0.0000002923
      3   3  19  35        -0.0000002888
      3   3  35  19        -0.0000002888
      1   6  42   4        -0.0000002854
      6   1   4  42        -0.0000002854
      1   2  18  41        -0.0000002850
      2   1  41  18        -0.0000002850
      0   7  24  34        -0.0000002849
      7   0  34  24        -0.0000002849
      0   2   3  19         0.0000002847
      2   0  19   3         0.0000002847
      0   1  16  30        -0.0000002783
      1   0  30  16        -0.0000002783
      2   3  19  42         0.0000002780
      3   2  42  19         0.0000002780
      3   5  19  42        -0.0000002632
      5   3  42  19        -0.0000002632
      0   7  24  42         0.0000002537
      7   0  42  24         0.0000002537
      1   4   1  10        -0.0000002463
      4   1  10   1        -0.0000002463
      1   4  43  10        -0.0000002337
      4   1  10  43        -0.0000002337
      6   6   1  36         0.0000002314
      6   6  36   1         0.0000002314
      2   3  43  18        -0.0000002309
      3   2  18  43        -0.0000002309
      5   7  43   0         0.0000002251
      7   5   0  43         0.0000002251
      0   5  19  43         0.0000002089
      5   0  43  19         0.0000002089
      1   3  28  25         0.0000002016
      3   1  25  28         0.0000002016
      1   4  25  43        -0.0000001944
      4   1  43  25        -0.0000001944
      4   7  42  27         0.0000001882
      7   4  27  42         0.0000001882
      0   6  30  17         0.0000001774
      6   0  17  30         0.0000001774
      0   4  43  20         0.0000001673
      4   0  20  43         0.0000001673
      0   6  42  29         0.0000001588
      6   0  29  42         0.0000001588
      0   6   8  30         0.0000001543
      6   0  30   8         0.0000001543
      0   7  43   6        -0.0000001518
      7   0   6  43        -0.0000001518
      0   6  39  14         0.0000001428
      6   0  14  39         0.0000001428
      5   6   0  36         0.0000001390
      6   5  36   0         0.0000001390
      0   3  35  18        -0.0000001186
      3   0  18  35        -0.0000001186
      0   7  43  15         0.0000001164
      7   0  15  43         0.0000001164
      2   5  43  41         0.0000001140
      5   2  41  43         0.0000001140
      0   1  30  16         0.0000001067
      1   0  16  30         0.0000001067
      2   2   1  19         0.0000001027
      2   2  19   1         0.0000001027
      4   5   6  42         0.0000000989
      5   4  42   6         0.0000000989
      3   3  31  43         0.0000000984
      3   3  43  31         0.0000000984
      0   6  28   1        -0.0000000754
      6   0   1  28        -0.0000000754
      2   5  33  29         0.0000000749
      5   2  29  33         0.0000000749
      4   5  42   0        -0.0000000657
      5   4   0  42        -0.0000000657
      0   7  33  34         0.0000000626
      7   0  34  33         0.0000000626
      5   6  42  24         0.0000000624
      6   5  24  42         0.0000000624
      1   4  19  15        -0.0000000372
      4   1  15  19        -0.0000000372
      4   7  34  43        -0.0000000341
      7   4  43  34        -0.0000000341
      5   6  16  28         0.0000000324
      6   5  28  16         0.0000000324
      0   7  42   8        -0.0000000152
      7   0   8  42        -0.0000000152
      1   2  33  25         0.0000000143
      2   1  25  33         0.0000000143
      1   5  30  36         0.0000000130
      5   1  36  30         0.0000000130

    SCF energy       (wfn)                    =  -77.975032001882411
    Reference energy (file100)                =  -77.975032001882340

    Opposite-spin MP2 correlation energy      =   -0.248014374714484
    Same-spin MP2 correlation energy          =   -0.061118545467739
    MP2 correlation energy                    =   -0.309132920182224
      * MP2 total energy                      =  -78.284164922064562

    Opposite-spin CCSD correlation energy     =   -0.288503852248937
    Same-spin CCSD correlation energy         =   -0.054872855882639
    CCSD correlation energy                   =   -0.343376708131576
      * CCSD total energy                     =  -78.318408710013912


*** tstop() called on Berts-MacBook-Pro.local at Wed Dec  6 22:56:00 2017
Module time:
	user time   =     148.18 seconds =       2.47 minutes
	system time =       4.91 seconds =       0.08 minutes
	total time  =        153 seconds =       2.55 minutes
Total time:
	user time   =     204.17 seconds =       3.40 minutes
	system time =       6.24 seconds =       0.10 minutes
	total time  =        210 seconds =       3.50 minutes

*** Psi4 exiting successfully. Buy a developer a beer!
