
    -----------------------------------------------------------------------
          Psi4: An Open-Source Ab Initio Electronic Structure Package
                               Psi4 1.1 release

                         Git: Rev {HEAD} add49b9 


    R. M. Parrish, L. A. Burns, D. G. A. Smith, A. C. Simmonett,
    A. E. DePrince III, E. G. Hohenstein, U. Bozkaya, A. Yu. Sokolov,
    R. Di Remigio, R. M. Richard, J. F. Gonthier, A. M. James,
    H. R. McAlexander, A. Kumar, M. Saitow, X. Wang, B. P. Pritchard,
    P. Verma, H. F. Schaefer III, K. Patkowski, R. A. King, E. F. Valeev,
    F. A. Evangelista, J. M. Turney, T. D. Crawford, and C. D. Sherrill,
    J. Chem. Theory Comput. in press (2017).
    (doi: 10.1021/acs.jctc.7b00174)

    -----------------------------------------------------------------------


    Psi4 started on: Wednesday, 06 December 2017 09:58PM

    Process ID:  12006
    PSIDATADIR: /anaconda3/share/psi4
    Memory:     500.0 MiB
    Threads:    1
    
  ==> Input File <==

--------------------------------------------------------------------------
"""This is a template for psi4 input format."""
import numpy
import sys

from openfermion.config import *
from openfermion.ops._interaction_tensor import (one_body_basis_change,
                                              two_body_basis_change)
from openfermion.hamiltonians import MolecularData
from numpy import array

sys.path.append('/Users/wadejong/Desktop/Quantum-Computing/OpenFermion/OpenFermion-Psi4/openfermionpsi4')
from _psi4_conversion_functions import *

# Set number of threads in PSI4
set_num_threads(8)

# Set memory that job can use in megabytes.
memory 8000 mb

# Initialize molecular data.
_description = 'ethylene_0.94248'
if _description == 'None':
    _description = None
molecule = MolecularData([['C', array([ 0.      ,  0.      ,  0.673055])], ['C', array([ 0.      ,  0.      , -0.673055])], ['H', array([ 0.      ,  0.934981,  1.246807])], ['H', array([ 0.      , -0.934981,  1.246807])], ['H', array([ 0.75641552, -0.54956804, -1.246807  ])], ['H', array([-0.75641552,  0.54956804, -1.246807  ])]],
                         'DZP',
                         1,
                         0,
                         _description,
                          filename='/Users/wadejong/Desktop/QCQCSiddiqi/8_Qubit_Simulation/data/H4-C2_DZP_singlet_ethylene_0.94248')

# Set molecular geometry and symmetry.
molecule mol {
C 0.0 0.0 0.673055
C 0.0 0.0 -0.673055
H 0.0 0.934981 1.246807
H 0.0 -0.934981 1.246807
H 0.7564155184176826 -0.5495680429736689 -1.246807
H -0.7564155184176826 0.5495680429736689 -1.246807
symmetry c1
}
mol.set_multiplicity(1)
mol.set_molecular_charge(0)

# Set reference and guess.
if molecule.multiplicity == 1:
    set reference rhf
    set guess sad
    set sad_frac_occ true
else:
    set reference rohf
    set guess sad
    set sad_frac_occ true

# Set global parameters of calculation.
set globals {
    basis DZP
    freeze_core false
    fail_on_maxiter true
    df_scf_guess false
    guess sad
    sad_frac_occ true
    opdm false
    tpdm false
    soscf true
    scf_type pk
    diis true
    maxiter 1e6
    num_amps_print 1e6
    r_convergence 1e-7
    d_convergence 1e-7
    e_convergence 1e-7
    ints_tolerance EQUALITY_TOLERANCE
    damping_percentage 0
}

# Run self-consistent field (SCF) calculation.
if True:
    try:

        hf_energy, hf_wavefunction = energy('scf', return_wfn=True)
        scf_wfn = hf_wavefunction
        if True:
            print('Hartree-Fock energy for {} ({} electrons) is {}.'.format(
                molecule.name, molecule.n_electrons, hf_energy))
    except:
        if True:
            print('WARNING: SCF calculation failed.')
        else:
            raise
    else:
        # Get orbitals and Fock matrix.
        molecule.hf_energy = hf_energy
        molecule.nuclear_repulsion = mol.nuclear_repulsion_energy()
        molecule.canonical_orbitals = numpy.asarray(hf_wavefunction.Ca())
        molecule.n_orbitals = molecule.canonical_orbitals.shape[0]
        molecule.n_qubits = 2 * molecule.n_orbitals
        molecule.orbital_energies = numpy.asarray(hf_wavefunction.epsilon_a())
        molecule.fock_matrix = numpy.asarray(hf_wavefunction.Fa())

        # Get integrals using MintsHelper.
        mints = MintsHelper(hf_wavefunction.basisset())
        molecule.one_body_integrals = one_body_basis_change(
            numpy.asarray(mints.ao_kinetic()), molecule.canonical_orbitals)
        molecule.one_body_integrals += one_body_basis_change(
            numpy.asarray(mints.ao_potential()), molecule.canonical_orbitals)
        two_body_integrals = numpy.asarray(mints.ao_eri())
        two_body_integrals.reshape((molecule.n_orbitals, molecule.n_orbitals,
                                    molecule.n_orbitals, molecule.n_orbitals))
        two_body_integrals = numpy.einsum('psqr', two_body_integrals)
        two_body_integrals = two_body_basis_change(
            two_body_integrals, molecule.canonical_orbitals)
        molecule.two_body_integrals = two_body_integrals
        molecule.save()


# Perform MP2 energy calculation if there are at least two electrons.
if True:
    try:
        assert molecule.n_electrons > 1
        mp2_energy = energy('mp2',ref_wfn=scf_wfn)
        if True:
            print('MP2 energy for {} ({} electrons) is {}.'.format(
                molecule.name, molecule.n_electrons, mp2_energy))
    except:
        if True:
            print('WARNING: MP2 calculation failed.')
        else:
            raise
    else:
        molecule.mp2_energy = mp2_energy
        molecule.save()


# Perform configuration interaction singles and doubles (CISD) calculation.
if True:
    set qc_module detci
    try:
        cisd_energy, cisd_wavefunction = energy('cisd', ref_wfn=scf_wfn, return_wfn=True)
        if True:
            print('CISD energy for {} ({} electrons) is {}.'.format(
                molecule.name, molecule.n_electrons, cisd_energy))
    except:
        if True:
            print('WARNING: CISD calculation failed.')
        else:
            raise
    else:
        # For the functions below, "a" and "b" refer to "up and "down" spins.
        molecule.cisd_energy = cisd_energy

        # Get 1-RDM from CISD calculation.
        """cisd_one_rdm_a = numpy.array(cisd_wavefunction.get_opdm(
            0, 0, 'A', True)).reshape(molecule.n_orbitals, molecule.n_orbitals)
        cisd_one_rdm_b = numpy.array(cisd_wavefunction.get_opdm(
            0, 0, 'B', True)).reshape(molecule.n_orbitals, molecule.n_orbitals)

        # Get 2-RDM from CISD calculation.
        cisd_two_rdm_aa = numpy.array(cisd_wavefunction.get_tpdm(
            'AA', False)).reshape(molecule.n_orbitals, molecule.n_orbitals,
                                  molecule.n_orbitals, molecule.n_orbitals)
        cisd_two_rdm_ab = numpy.array(cisd_wavefunction.get_tpdm(
            'AB', False)).reshape(molecule.n_orbitals, molecule.n_orbitals,
                                  molecule.n_orbitals, molecule.n_orbitals)
        cisd_two_rdm_bb = numpy.array(cisd_wavefunction.get_tpdm(
            'BB', False)).reshape(molecule.n_orbitals, molecule.n_orbitals,
                                  molecule.n_orbitals, molecule.n_orbitals)

        # Get overall RDMs.
        cisd_one_rdm, cisd_two_rdm = unpack_spatial_rdm(
            cisd_one_rdm_a, cisd_one_rdm_b, cisd_two_rdm_aa,
            cisd_two_rdm_ab, cisd_two_rdm_bb)

        # Store 1-RDM in molecule file, 2-RDM separately in other file.
        molecule.cisd_one_rdm = cisd_one_rdm
        molecule.cisd_two_rdm = cisd_two_rdm
        molecule.save()"""


# Perform exact diagonalization.
if False:
    set qc_module detci
    try:
        fci_energy, fci_wavefunction = energy('fci', ref_wfn=scf_wfn, return_wfn=True)
        if True:
            print('FCI energy for {} ({} electrons) is {}.'.format(
                molecule.name, molecule.n_electrons, fci_energy))
    except:
        if True:
            print('WARNING: FCI calculation failed.')
        else:
            raise
    else:
        # For the functions below, "a" and "b" refer to "up and "down" spins.
        molecule.fci_energy = fci_energy

        # Get 1-RDM from FCI calculation.
        """fci_one_rdm_a = numpy.array(fci_wavefunction.get_opdm(
            0, 0, 'A', True)).reshape(molecule.n_orbitals, molecule.n_orbitals)
        fci_one_rdm_b = numpy.array(fci_wavefunction.get_opdm(
            0, 0, 'B', True)).reshape(molecule.n_orbitals, molecule.n_orbitals)

        # Get 2-RDM from FCI calculation.
        fci_two_rdm_aa = numpy.array(fci_wavefunction.get_tpdm(
            'AA', False)).reshape(molecule.n_orbitals, molecule.n_orbitals,
                                  molecule.n_orbitals, molecule.n_orbitals)
        fci_two_rdm_ab = numpy.array(fci_wavefunction.get_tpdm(
            'AB', False)).reshape(molecule.n_orbitals, molecule.n_orbitals,
                                  molecule.n_orbitals, molecule.n_orbitals)
        fci_two_rdm_bb = numpy.array(fci_wavefunction.get_tpdm(
            'BB', False)).reshape(molecule.n_orbitals, molecule.n_orbitals,
                                  molecule.n_orbitals, molecule.n_orbitals)

        # Get overall RDMs.
        fci_one_rdm, fci_two_rdm = unpack_spatial_rdm(
            fci_one_rdm_a, fci_one_rdm_b,
            fci_two_rdm_aa, fci_two_rdm_ab, fci_two_rdm_bb)

        # Store 1-RDM in molecule file, 2-RDM separately in other file.
        molecule.fci_one_rdm = fci_one_rdm
        molecule.fci_two_rdm = fci_two_rdm
        molecule.save()"""


# Perform coupled cluster singles and doubles (CCSD) calculation.
if True:
    set qc_module ccenergy
    try:
        ccsd_energy = energy('ccsd',ref_wfn=scf_wfn)
        if True:
            print('CCSD energy for {} ({} electrons) is {}.'.format(
                molecule.name, molecule.n_electrons, ccsd_energy))
    except:
        if True:
            print('WARNING: CCSD calculation failed.')
        else:
            raise
    else:
        molecule.ccsd_energy = ccsd_energy

        # Merge CC amplitudes into molecule by parsing
        psi_filename = outfile_name()
        ccsd_amplitudes = parse_psi4_ccsd_amplitudes(
            2 * molecule.n_orbitals,
            molecule.get_n_alpha_electrons(),
            molecule.get_n_beta_electrons(),
            psi_filename)
        molecule.ccsd_amplitudes = ccsd_amplitudes
        molecule.save()
--------------------------------------------------------------------------
  Python driver attempted to set threads to 8.
  Psi4 was compiled without OpenMP, setting threads to 1.

  Memory set to   7.451 GiB by Python driver.

*** tstart() called on Berts-MacBook-Pro.local
*** at Wed Dec  6 21:58:08 2017

   => Loading Basis Set <=

    Name: DZP
    Role: ORBITAL
    Keyword: BASIS
    atoms 1-2 entry C          line    73 file /anaconda3/share/psi4/basis/dzp.gbs 
    atoms 3-6 entry H          line    16 file /anaconda3/share/psi4/basis/dzp.gbs 


         ---------------------------------------------------------
                                   SCF
            by Justin Turney, Rob Parrish, and Andy Simmonett
                              RHF Reference
                        1 Threads,   7629 MiB Core
         ---------------------------------------------------------

  ==> Geometry <==

    Molecular point group: c1
    Full point group: D2

    Geometry (in Angstrom), charge = 0, multiplicity = 1:

       Center              X                  Y                   Z               Mass       
    ------------   -----------------  -----------------  -----------------  -----------------
           C          0.000000000000     0.000000000000     0.673055000000    12.000000000000
           C          0.000000000000     0.000000000000    -0.673055000000    12.000000000000
           H          0.424472491437     0.833074170992     1.246807000000     1.007825032070
           H         -0.424472491437    -0.833074170992     1.246807000000     1.007825032070
           H          0.424472491437    -0.833074170992    -1.246807000000     1.007825032070
           H         -0.424472491437     0.833074170992    -1.246807000000     1.007825032070

  Running in c1 symmetry.

  Rotational constants: A =      4.78350  B =      0.94360  C =      0.84556 [cm^-1]
  Rotational constants: A = 143405.72603  B =  28288.48011  C =  25349.29043 [MHz]
  Nuclear repulsion =   32.997621174323626

  Charge       = 0
  Multiplicity = 1
  Electrons    = 16
  Nalpha       = 8
  Nbeta        = 8

  ==> Algorithm <==

  SCF Algorithm Type is PK.
  DIIS enabled.
  MOM disabled.
  Fractional occupation disabled.
  Guess Type is SAD.
  Energy threshold   = 1.00e-07
  Density threshold  = 1.00e-07
  Integral threshold = 0.00e+00

  ==> Primary Basis <==

  Basis Set: DZP
    Blend: DZP
    Number of shells: 26
    Number of basis function: 52
    Number of Cartesian functions: 52
    Spherical Harmonics?: false
    Max angular momentum: 2

  ==> Pre-Iterations <==

   -------------------------------------------------------
    Irrep   Nso     Nmo     Nalpha   Nbeta   Ndocc  Nsocc
   -------------------------------------------------------
     A         52      52       0       0       0       0
   -------------------------------------------------------
    Total      52      52       8       8       8       0
   -------------------------------------------------------

  ==> Integral Setup <==

  Using in-core PK algorithm.
   Calculation information:
      Number of atoms:                   6
      Number of AO shells:              26
      Number of primitives:             50
      Number of atomic orbitals:        52
      Number of basis functions:        52

      Integral cutoff                 1.00e-12
      Number of threads:                 1

  Performing in-core PK
  Using 1900262 doubles for integral storage.
  We computed 61765 shell quartets total.
  Whereas there are 61776 unique shell quartets.
  ==> DiskJK: Disk-Based J/K Matrices <==

    J tasked:                  Yes
    K tasked:                  Yes
    wK tasked:                  No
    Memory (MB):              5722
    Schwarz Cutoff:          1E-12

    OpenMP threads:              1
  Minimum eigenvalue in the overlap matrix is 9.1035891002E-03.
  Using Symmetric Orthogonalization.

  SCF Guess: Superposition of Atomic Densities via on-the-fly atomic UHF.

  ==> Iterations <==

                        Total Energy        Delta E     RMS |[F,P]|

   @RHF iter   0:   -69.16320881626048   -6.91632e+01   1.01492e-01 
   @RHF iter   1:   -74.24104481238763   -5.07784e+00   4.00871e-02 
   @RHF iter   2:   -77.11533194586275   -2.87429e+00   2.43672e-02 DIIS/DAMP
   @RHF iter   3:   -77.97348260365308   -8.58151e-01   2.41744e-03 DIIS/DAMP
   @RHF iter   4:   -77.98521169626225   -1.17291e-02   4.19287e-04 SOSCF, nmicro = 4/DAMP
   @RHF iter   5:   -77.98583352129339   -6.21825e-04   2.17724e-06 SOSCF, nmicro = 4/DAMP
   @RHF iter   6:   -77.98583353312577   -1.18324e-08   1.45955e-09 SOSCF, conv/DAMP

  ==> Post-Iterations <==

    Orbital Energies (a.u.)
    -----------------------

    Doubly Occupied:                                                      

       1A    -11.247250     2A    -11.245728     3A     -1.029192  
       4A     -0.789470     5A     -0.621823     6A     -0.584390  
       7A     -0.544645     8A     -0.317902  

    Virtual:                                                              

       9A      0.101493    10A      0.257328    11A      0.311751  
      12A      0.344258    13A      0.391757    14A      0.412417  
      15A      0.449800    16A      0.462938    17A      0.477486  
      18A      0.572594    19A      0.597144    20A      0.681600  
      21A      0.819098    22A      1.010731    23A      1.213885  
      24A      1.242656    25A      1.302580    26A      1.419590  
      27A      1.573168    28A      1.613127    29A      1.717323  
      30A      1.963173    31A      2.006107    32A      2.074494  
      33A      2.077457    34A      2.139739    35A      2.181204  
      36A      2.448007    37A      2.457263    38A      2.476366  
      39A      2.652038    40A      2.754981    41A      2.851289  
      42A      2.912616    43A      2.936453    44A      3.194591  
      45A      3.464085    46A      3.471277    47A      3.550886  
      48A      3.793393    49A      4.243891    50A      4.505475  
      51A     27.635299    52A     27.655125  

    Final Occupation by Irrep:
              A 
    DOCC [     8 ]

  Energy converged.

  @RHF Final Energy:   -77.98583353312577

   => Energetics <=

    Nuclear Repulsion Energy =             32.9976211743236263
    One-Electron Energy =                -169.2061079065098284
    Two-Electron Energy =                  58.2226531990604315
    DFT Exchange-Correlation Energy =       0.0000000000000000
    Empirical Dispersion Energy =           0.0000000000000000
    PCM Polarization Energy =               0.0000000000000000
    EFP Energy =                            0.0000000000000000
    Total Energy =                        -77.9858335331257706



Properties will be evaluated at   0.000000,   0.000000,   0.000000 Bohr

Properties computed using the SCF density matrix

  Nuclear Dipole Moment: (a.u.)
     X:     0.0000      Y:     0.0000      Z:     0.0000

  Electronic Dipole Moment: (a.u.)
     X:     0.0000      Y:    -0.0000      Z:    -0.0000

  Dipole Moment: (a.u.)
     X:     0.0000      Y:    -0.0000      Z:    -0.0000     Total:     0.0000

  Dipole Moment: (Debye)
     X:     0.0000      Y:    -0.0000      Z:    -0.0000     Total:     0.0000


*** tstop() called on Berts-MacBook-Pro.local at Wed Dec  6 21:58:08 2017
Module time:
	user time   =       0.40 seconds =       0.01 minutes
	system time =       0.02 seconds =       0.00 minutes
	total time  =          0 seconds =       0.00 minutes
Total time:
	user time   =       0.40 seconds =       0.01 minutes
	system time =       0.02 seconds =       0.00 minutes
	total time  =          0 seconds =       0.00 minutes

*** tstart() called on Berts-MacBook-Pro.local
*** at Wed Dec  6 21:58:12 2017


  //>>>>>>>>>>>>>>>>>>>>>>>>>>>>>>>>>>>//
  //               DFMP2               //
  //<<<<<<<<<<<<<<<<<<<<<<<<<<<<<<<<<<<//

   => Loading Basis Set <=

    Name: (DZP AUX)
    Role: RIFIT
    Keyword: DF_BASIS_MP2
    atoms 1-2 entry C          line   269 file /anaconda3/share/psi4/basis/def2-qzvpp-ri.gbs 
    atoms 3-6 entry H          line    23 file /anaconda3/share/psi4/basis/def2-qzvpp-ri.gbs 

	 --------------------------------------------------------
	                          DF-MP2                         
	      2nd-Order Density-Fitted Moller-Plesset Theory     
	              RMP2 Wavefunction,   1 Threads             
	                                                         
	        Rob Parrish, Justin Turney, Andy Simmonett,      
	           Ed Hohenstein, and C. David Sherrill          
	 --------------------------------------------------------

   => Auxiliary Basis Set <=

  Basis Set: (DZP AUX)
    Blend: DEF2-QZVPP-RI
    Number of shells: 130
    Number of basis function: 506
    Number of Cartesian functions: 666
    Spherical Harmonics?: true
    Max angular momentum: 5

	 --------------------------------------------------------
	                 NBF =    52, NAUX =   506
	 --------------------------------------------------------
	   CLASS    FOCC     OCC    AOCC    AVIR     VIR    FVIR
	   PAIRS       0       8       8      44      44       0
	 --------------------------------------------------------

	-----------------------------------------------------------
	 ==================> DF-MP2 Energies <==================== 
	-----------------------------------------------------------
	 Reference Energy          =     -77.9858335331257706 [Eh]
	 Singles Energy            =      -0.0000000000000000 [Eh]
	 Same-Spin Energy          =      -0.0610099239488111 [Eh]
	 Opposite-Spin Energy      =      -0.2473452716271365 [Eh]
	 Correlation Energy        =      -0.3083551955759476 [Eh]
	 Total Energy              =     -78.2941887287017124 [Eh]
	-----------------------------------------------------------
	 ================> DF-SCS-MP2 Energies <================== 
	-----------------------------------------------------------
	 SCS Same-Spin Scale       =       0.3333333333333333 [-]
	 SCS Opposite-Spin Scale   =       1.2000000000000000 [-]
	 SCS Same-Spin Energy      =      -0.0203366413162704 [Eh]
	 SCS Opposite-Spin Energy  =      -0.2968143259525639 [Eh]
	 SCS Correlation Energy    =      -0.3171509672688342 [Eh]
	 SCS Total Energy          =     -78.3029845003946008 [Eh]
	-----------------------------------------------------------


*** tstop() called on Berts-MacBook-Pro.local at Wed Dec  6 21:58:13 2017
Module time:
	user time   =       0.29 seconds =       0.00 minutes
	system time =       0.04 seconds =       0.00 minutes
	total time  =          1 seconds =       0.02 minutes
Total time:
	user time   =       4.54 seconds =       0.08 minutes
	system time =       0.21 seconds =       0.00 minutes
	total time  =          5 seconds =       0.08 minutes
 MINTS: Wrapper to libmints.
   by Justin Turney

   Calculation information:
      Number of threads:                 1
      Number of atoms:                   6
      Number of AO shells:              26
      Number of SO shells:              26
      Number of primitives:             50
      Number of atomic orbitals:        52
      Number of basis functions:        52

      Number of irreps:                  1
      Integral cutoff                 0.00e+00
      Number of functions per irrep: [  52 ]

 OEINTS: Overlap, kinetic, potential, dipole, and quadrupole integrals
         stored in file 35.

      Computing two-electron integrals...done
      Computed 841036 non-zero two-electron integrals.
        Stored in file 33.


         ---------------------------------------------------------
                          Configuration Interaction
                            (a 'D E T C I' module)

                 C. David Sherrill, Daniel G. A. Smith, and
                              Matt L. Leininger
         ---------------------------------------------------------


   ==> Parameters <==

    EX LEVEL       =        2      H0 BLOCKSIZE  =     1000
    VAL EX LEVEL   =        0      H0 GUESS SIZE =     1000
    H0COUPLINGSIZE =        0      H0 COUPLING   =       NO
    MAXITER        =       24      NUM PRINT     =       20
    NUM ROOTS      =        1      ICORE         =        1
    PRINT LVL      =        1      FCI           =       NO
    R CONV         = 1.00e-07      MIXED         =      YES
    E CONV         = 1.00e-07      MIXED4        =      YES
    R4S            =       NO      REPL OTF      =       NO
    DIAG METHOD    =      SEM      FOLLOW ROOT   =        0
    PRECONDITIONER = DAVIDSON      UPDATE        = DAVIDSON
    S              =   0.0000      Ms0           =      YES
    GUESS VECTOR   =  H0BLOCK      OPENTYPE      =     NONE
    COLLAPSE SIZE  =        1      HD AVG        = EVANGELISTI
    MAX NUM VECS   =       25      REF SYM       =     AUTO
    IOPEN        =       NO

    EX ALLOW       =  1  1 
    STATE AVERAGE  =  0(1.00) 

   ==> CI Orbital and Space information <==

    RAS1 LVL      =        7      A RAS3 MAX    =        2
    RAS1 MIN      =       14      B RAS3 MAX    =        2
    A RAS1 LVL    =        7      RAS4 LVL      =       52
    A RAS1 MIN    =        6      A RAS4 MAX    =        0
    A RAS1 MAX    =        8      B RAS4 MAX    =        0
    B RAS1 LVL    =        7      RAS4 MAX      =        0
    B RAS1 MIN    =        6      A RAS34 MAX   =        2
    B RAS1 MAX    =        8      B RAS34 MAX   =        2
    RAS3 LVL      =        8      RAS34 MAX     =        2
    RAS3 MAX      =        2
   ------------------------------------
               Space    Total     A
   ------------------------------------
                 Nso       52    52
                 Nmo       52    52
               Ndocc        8     8
               Nsocc        0     0
   ------------------------------------
              CI Spaces
   ------------------------------------
        Dropped DOCC        0     0
                RAS1        8     8
                RAS2        0     0
                RAS3       44    44
                RAS4        0     0
      Active (total)       52    52
        Dropped UOCC        0     0
   ------------------------------------

   ==> Setting up CI strings <==

    There are 26841 alpha and 26841 beta strings
    The CI space requires 177585 (1.78E+05) determinants and 6 blocks

   ==> Transforming CI integrals <==

	Presorting SO-basis two-electron integrals.
	Sorting File: SO Ints (nn|nn) nbuckets = 1
	Transforming the one-electron integrals and constructing Fock matrices
	Starting first half-transformation.
	Sorting half-transformed integrals.
	First half integral transformation complete.
	Starting second half-transformation.
	Two-electron integral transformation complete.

   ==> Starting CI iterations <==

    H0 Block Eigenvalue = -78.02726601

    Simultaneous Expansion Method (Block Davidson Method)
    Using 1 initial trial vectors

     Iter   Root       Total Energy       Delta E      C RMS

   @CI  0:     0    -78.027266008550   -1.1102E+02   1.5143E+00  
   @CI  1:     0    -78.282718744167   -2.5545E-01   1.5683E-01  
   @CI  2:     0    -78.296109254318   -1.3391E-02   5.6180E-02  
   @CI  3:     0    -78.297565310372   -1.4561E-03   1.6675E-02  
   @CI  4:     0    -78.297675417721   -1.1011E-04   4.8788E-03  
   @CI  5:     0    -78.297683851153   -8.4334E-06   1.3228E-03  
   @CI  6:     0    -78.297684447191   -5.9604E-07   3.6446E-04  
   @CI  7:     0    -78.297684492164   -4.4973E-08   1.0294E-04  
   @CI  8:     0    -78.297684495370   -3.2056E-09   2.4334E-05  
   @CI  9:     0    -78.297684495555   -1.8454E-10   6.0632E-06  
   @CI 10:     0    -78.297684495565   -1.0203E-11   1.2325E-06  
   @CI 11:     0    -78.297684495565   -4.2633E-13   2.6412E-07  
    Warning: Norm of correction (root 0) is < 1.0E-13
   @CI 12:     0    -78.297684495565   -1.4211E-14   5.6417E-08 c

   ==> Energetics <==

    SCF energy =            0.000000000000000
    Total CI energy =     -78.297684495565193

   ==> CISD root 0 information <==

    CISD Root 0 energy =   -78.297684495565193

   The 20 most important determinants:

    *   1    0.948047  (    0,    0)  1AX 2AX 3AX 4AX 5AX 6AX 7AX 8AX 
    *   2   -0.102264  (    1,    1)  1AX 2AX 3AX 4AX 5AX 6AX 7AX 9AX 
    *   3   -0.040519  (    1,   81)  1AX 2AX 3AX 4AX 5AX 6AX 7AX 9AA 19AB 
    *   4   -0.040519  (   81,    1)  1AX 2AX 3AX 4AX 5AX 6AX 7AX 9AB 19AA 
    *   5    0.028262  (    1,    2)  1AX 2AX 3AX 4AX 5AX 6AX 7AA 8AB 9AX 
    *   6    0.028262  (    2,    1)  1AX 2AX 3AX 4AX 5AX 6AX 7AB 8AA 9AX 
    *   7   -0.027098  (   99,   99)  1AX 2AX 3AX 4AX 5AX 7AX 8AX 21AX 
    *   8   -0.022707  (   81,   81)  1AX 2AX 3AX 4AX 5AX 6AX 7AX 19AX 
    *   9   -0.022452  (    1,   99)  1AX 2AX 3AX 4AX 5AX 6AA 7AX 8AB 9AA 21AB 
    *  10   -0.022452  (   99,    1)  1AX 2AX 3AX 4AX 5AX 6AB 7AX 8AA 9AB 21AA 
    *  11   -0.020669  (    2,    2)  1AX 2AX 3AX 4AX 5AX 6AX 8AX 9AX 
    *  12   -0.019064  (    5,    5)  1AX 2AX 3AX 5AX 6AX 7AX 8AX 9AX 
    *  13   -0.018825  (   36,   36)  1AX 2AX 3AX 4AX 6AX 7AX 8AX 13AX 
    *  14   -0.018027  (   43,   43)  1AX 2AX 3AX 4AX 5AX 7AX 8AX 14AX 
    *  15   -0.017904  (    0, 2202)  1AX 2AX 3AX 4AX 5AX 6AA 7AX 8AA 9AB 21AB 
    *  16   -0.017904  ( 2202,    0)  1AX 2AX 3AX 4AX 5AX 6AB 7AX 8AB 9AA 21AA 
    *  17   -0.017568  (   81,   99)  1AX 2AX 3AX 4AX 5AX 6AA 7AX 8AB 19AA 21AB 
    *  18   -0.017568  (   99,   81)  1AX 2AX 3AX 4AX 5AX 6AB 7AX 8AA 19AB 21AA 
    *  19    0.015670  (    2,   81)  1AX 2AX 3AX 4AX 5AX 6AX 7AB 8AA 9AA 19AB 
    *  20    0.015670  (   81,    2)  1AX 2AX 3AX 4AX 5AX 6AX 7AA 8AB 9AB 19AA 

		 "A good bug is a dead bug" 

			 - Starship Troopers

		 "I didn't write FORTRAN.  That's the problem."

			 - Edward Valeev
 MINTS: Wrapper to libmints.
   by Justin Turney

   Calculation information:
      Number of threads:                 1
      Number of atoms:                   6
      Number of AO shells:              26
      Number of SO shells:              26
      Number of primitives:             50
      Number of atomic orbitals:        52
      Number of basis functions:        52

      Number of irreps:                  1
      Integral cutoff                 0.00e+00
      Number of functions per irrep: [  52 ]

 OEINTS: Overlap, kinetic, potential, dipole, and quadrupole integrals
         stored in file 35.

      Computing two-electron integrals...done
      Computed 841036 non-zero two-electron integrals.
        Stored in file 33.


*** tstart() called on Berts-MacBook-Pro.local
*** at Wed Dec  6 21:59:05 2017


	Wfn Parameters:
	--------------------
	Wavefunction         = CCSD
	Number of irreps     = 1
	Number of MOs        = 52
	Number of active MOs = 52
	AO-Basis             = NONE
	Semicanonical        = false
	Reference            = RHF
	Print Level          = 1

	IRREP	# MOs	# FZDC	# DOCC	# SOCC	# VIRT	# FZVR
	-----	-----	------	------	------	------	------
	 A	   52	    0	    8	    0	    44	    0
	Transforming integrals...
	IWL integrals will be deleted.
	(OO|OO)...
	Presorting SO-basis two-electron integrals.
	Sorting File: SO Ints (nn|nn) nbuckets = 1
	Transforming the one-electron integrals and constructing Fock matrices
	Starting first half-transformation.
	Sorting half-transformed integrals.
	First half integral transformation complete.
	Starting second half-transformation.
	Two-electron integral transformation complete.
	(OO|OV)...
	Starting second half-transformation.
	Two-electron integral transformation complete.
	(OO|VV)...
	Starting second half-transformation.
	Two-electron integral transformation complete.
	(OV|OO)...
	Starting first half-transformation.
	Sorting half-transformed integrals.
	First half integral transformation complete.
	Starting second half-transformation.
	Two-electron integral transformation complete.
	(OV|OV)...
	Starting second half-transformation.
	Two-electron integral transformation complete.
	(OV|VV)...
	Starting second half-transformation.
	Two-electron integral transformation complete.
	(VV|OO)...
	Starting first half-transformation.
	Sorting half-transformed integrals.
	First half integral transformation complete.
	Starting second half-transformation.
	Two-electron integral transformation complete.
	(VV|OV)...
	Starting second half-transformation.
	Two-electron integral transformation complete.
	(VV|VV)...
	Starting second half-transformation.
	Two-electron integral transformation complete.
	Frozen core energy     =      0.00000000000000

	Size of irrep 0 of <ab|cd> integrals:      3.748 (MW) /     29.985 (MB)
	Total:                                     3.748 (MW) /     29.985 (MB)

	Size of irrep 0 of <ia|bc> integrals:      0.681 (MW) /      5.452 (MB)
	Total:                                     0.681 (MW) /      5.452 (MB)

	Size of irrep 0 of tijab amplitudes:       0.124 (MW) /      0.991 (MB)
	Total:                                     0.124 (MW) /      0.991 (MB)

	Nuclear Rep. energy          =     32.99762117432363
	SCF energy                   =    -77.98583353312577
	One-electron energy          =   -169.20610795467655
	Two-electron energy          =     58.22265324722713
	Reference energy             =    -77.98583353312580

*** tstop() called on Berts-MacBook-Pro.local at Wed Dec  6 21:59:05 2017
Module time:
	user time   =       0.27 seconds =       0.00 minutes
	system time =       0.32 seconds =       0.01 minutes
	total time  =          0 seconds =       0.00 minutes
Total time:
	user time   =      56.39 seconds =       0.94 minutes
	system time =       1.05 seconds =       0.02 minutes
	total time  =         57 seconds =       0.95 minutes

*** tstart() called on Berts-MacBook-Pro.local
*** at Wed Dec  6 21:59:05 2017

            **************************
            *                        *
            *        CCENERGY        *
            *                        *
            **************************

    Nuclear Rep. energy (wfn)     =   32.997621174323626
    SCF energy          (wfn)     =  -77.985833533125771
    Reference energy    (file100) =  -77.985833533125799

    Input parameters:
    -----------------
    Wave function   =     CCSD
    Reference wfn   =     RHF
    Brueckner       =     No
    Memory (Mbytes) =     8000.0
    Maxiter         =   1000000
    R_Convergence   =     1.0e-07
    E_Convergence   =     1.0e-07
    Restart         =     Yes
    DIIS            =     Yes
    AO Basis        =     NONE
    ABCD            =     NEW
    Cache Level     =     2
    Cache Type      =     LOW
    Print Level     =     1
    Num. of threads =     1
    # Amps to Print =     1000000
    Print MP2 Amps? =     No
    Analyze T2 Amps =     No
    Print Pair Ener =     No
    Local CC        =     No
    SCS-MP2         =     False
    SCSN-MP2        =     False
    SCS-CCSD        =     False

MP2 correlation energy -0.3083633688301242
                Solving CC Amplitude Equations
                ------------------------------
  Iter             Energy              RMS        T1Diag      D1Diag    New D1Diag    D2Diag
  ----     ---------------------    ---------   ----------  ----------  ----------   --------
     0        -0.308363368830124    0.000e+00    0.000000    0.000000    0.000000    0.166228
     1        -0.328748214664746    5.914e-02    0.007191    0.025864    0.025864    0.187989
     2        -0.339949959164860    2.861e-02    0.009156    0.033785    0.033785    0.214764
     3        -0.341726058313647    1.224e-02    0.010686    0.040001    0.040001    0.230097
     4        -0.341904566817515    4.913e-03    0.010914    0.041164    0.041164    0.237996
     5        -0.341940759762884    1.176e-03    0.010885    0.041093    0.041093    0.239142
     6        -0.341934350644421    3.423e-04    0.010865    0.041019    0.041019    0.239168
     7        -0.341933992979036    1.193e-04    0.010859    0.040995    0.040995    0.239189
     8        -0.341933728398495    3.134e-05    0.010859    0.040995    0.040995    0.239186
     9        -0.341933575415011    8.555e-06    0.010859    0.040995    0.040995    0.239185
    10        -0.341933859419054    2.639e-06    0.010859    0.040996    0.040996    0.239186
    11        -0.341933854496200    7.644e-07    0.010859    0.040996    0.040996    0.239186
    12        -0.341933872581889    1.859e-07    0.010859    0.040996    0.040996    0.239186
    13        -0.341933869509524    5.601e-08    0.010859    0.040996    0.040996    0.239186

    Iterations converged.


    Largest TIA Amplitudes:
              7   7         0.0278986022
              7   9         0.0261324249
              7  20         0.0086107634
              6   9         0.0071159858
              7  17        -0.0054482702
              4   4         0.0051818389
              6   7         0.0049815773
              7  29         0.0046733454
              3  13         0.0042738979
              5  21         0.0042417491
              5   5         0.0040992511
              7   8         0.0040179653
              3  23         0.0033842331
              4  22        -0.0031547377
              6  33         0.0028349233
              2  40         0.0026142472
              2   2        -0.0025637122
              2  21         0.0025477289
              2  26        -0.0025403563
              4  15         0.0023378838
              5  34        -0.0023054095
              6   8        -0.0019597288
              6  17        -0.0019155233
              3  41         0.0018580826
              4  32         0.0018461881
              5  18         0.0018445183
              4  10        -0.0017993691
              7  33        -0.0017888142
              7  24         0.0017678623
              3  27        -0.0017336699
              6  24        -0.0015924940
              2   5         0.0015449079
              4  38         0.0015262100
              3  35         0.0015244026
              6  20         0.0015019483
              3  36         0.0012793821
              2  11         0.0011792070
              5  14        -0.0011418114
              3   1        -0.0011252017
              4  25         0.0011165110
              5  11        -0.0011128050
              2  30        -0.0010614207
              7  39         0.0010382867
              5   2        -0.0010103454
              5  37        -0.0010096044
              6  39         0.0009707014
              2  37         0.0009477797
              3  31        -0.0008896992
              3  12         0.0008617757
              2  14         0.0008357762
              4  28         0.0007452171
              5  26         0.0006037798
              1  13        -0.0005675399
              5  40         0.0004831028
              0  40        -0.0004553331
              3  19        -0.0004368383
              4   0        -0.0004069564
              1  41        -0.0003830726
              1   1        -0.0003296522
              0  11        -0.0003153080
              2  34        -0.0003001853
              0  14        -0.0002990399
              3  16         0.0002878802
              0   2        -0.0002584999
              1  12        -0.0002517364
              1  35        -0.0002287098
              5  30         0.0001851567
              0  37        -0.0001753822
              1   3        -0.0001609662
              0   5        -0.0001466553
              1  36        -0.0001376702
              3   3         0.0001339709
              1  27        -0.0001244236
              2  42         0.0001208611
              0  21        -0.0001156910
              1  23        -0.0001088487
              1  43         0.0000968646
              0  42         0.0000963619
              4   6         0.0000931985
              3  43         0.0000909547
              1  16        -0.0000552417
              0  34        -0.0000434665
              5  42         0.0000174571
              1  31        -0.0000121042
              6  29         0.0000084761
              0  26         0.0000080378
              1  19        -0.0000060036
              0  18         0.0000051434
              0  30         0.0000020113
              2  18         0.0000010260

    Largest TIjAb Amplitudes:
      7   7   0   0        -0.1655767435
      7   7   0  10        -0.0575465482
      7   7  10   0        -0.0575465482
      6   7   0   0        -0.0374621483
      7   6   0   0        -0.0374621483
      5   5  12  12        -0.0313667335
      7   7  10  10        -0.0268483347
      5   7  12   0        -0.0257449849
      7   5   0  12        -0.0257449849
      6   6   0   0        -0.0256400221
      4   4   4   4        -0.0228827408
      3   3   0   0        -0.0220507074
      5   5   5   5        -0.0217520637
      6   7   0  10        -0.0208318303
      7   6  10   0        -0.0208318303
      5   7  12  10        -0.0204235399
      7   5  10  12        -0.0204235399
      6   7   0   4        -0.0189258206
      7   6   4   0        -0.0189258206
      6   6   7   7        -0.0183753849
      3   7   2   0        -0.0182638706
      7   3   0   2        -0.0182638706
      6   7  10   0        -0.0181940335
      7   6   0  10        -0.0181940335
      6   6   4   4        -0.0177296996
      2   7   0  12        -0.0176520976
      7   2  12   0        -0.0176520976
      2   7  12   0        -0.0170802428
      7   2   0  12        -0.0170802428
      7   7   9   9        -0.0168602139
      3   7   0   2        -0.0168371181
      7   3   2   0        -0.0168371181
      6   6   3   3        -0.0165777491
      2   7   1   0        -0.0163649736
      7   2   0   1        -0.0163649736
      2   7   0   3        -0.0159748800
      7   2   3   0        -0.0159748800
      4   5   4   5         0.0159452278
      5   4   5   4         0.0159452278
      4   6   4   7        -0.0156450397
      6   4   7   4        -0.0156450397
      4   6   4   9         0.0155730250
      6   4   9   4         0.0155730250
      4   7   9   0         0.0154743014
      7   4   0   9         0.0154743014
      5   6   5   7         0.0154341979
      6   5   7   5         0.0154341979
      7   7  11  11        -0.0153513052
      4   6   2   3        -0.0149792563
      6   4   3   2        -0.0149792563
      4   4   2   2        -0.0149502003
      2   2  12  12        -0.0145867027
      5   5   4   4        -0.0145574798
      2   7   0   1        -0.0144862043
      7   2   1   0        -0.0144862043
      4   4   6   6        -0.0143501929
      5   7   5   9         0.0142855320
      7   5   9   5         0.0142855320
      4   7   0   9         0.0142273597
      7   4   9   0         0.0142273597
      7   7   0   6         0.0140577361
      7   7   6   0         0.0140577361
      5   5   0   0        -0.0138535400
      3   5   1   5         0.0138490530
      5   3   5   1         0.0138490530
      3   7   0  11         0.0137019715
      7   3  11   0         0.0137019715
      4   4   9   9        -0.0135004243
      7   7   4   4        -0.0134276014
      5   6  12   0        -0.0131423764
      6   5   0  12        -0.0131423764
      4   7   4   9        -0.0130527452
      7   4   9   4        -0.0130527452
      3   5   2  12        -0.0130003410
      5   3  12   2        -0.0130003410
      4   6   6   7        -0.0129895356
      6   4   7   6        -0.0129895356
      3   7   0   5        -0.0129409740
      7   3   5   0        -0.0129409740
      2   7   3   0        -0.0128684561
      7   2   0   3        -0.0128684561
      6   7  10  10        -0.0128516341
      7   6  10  10        -0.0128516341
      5   6   4   3         0.0128303900
      6   5   3   4         0.0128303900
      3   3  12  12        -0.0128020157
      4   4   3   3        -0.0127291577
      6   7   7   9        -0.0126582067
      7   6   9   7        -0.0126582067
      4   7   6   9        -0.0124420586
      7   4   9   6        -0.0124420586
      3   6   0  18         0.0123383262
      6   3  18   0         0.0123383262
      2   5  13  12        -0.0123248595
      5   2  12  13        -0.0123248595
      2   7   1  10        -0.0123020959
      7   2  10   1        -0.0123020959
      6   6   2   2        -0.0122480401
      3   6   1   7        -0.0122410323
      6   3   7   1        -0.0122410323
      2   2   0   0        -0.0121543610
      3   4   1   4        -0.0121129780
      4   3   4   1        -0.0121129780
      3   7   0  14        -0.0120834115
      7   3  14   0        -0.0120834115
      2   7  13  10        -0.0120828293
      7   2  10  13        -0.0120828293
      3   3   2   2        -0.0120499470
      4   6   9   4         0.0120469297
      6   4   4   9         0.0120469297
      2   7  12  10        -0.0120226287
      7   2  10  12        -0.0120226287
      3   7   5   0        -0.0119738882
      7   3   0   5        -0.0119738882
      2   7  13   0        -0.0118923737
      7   2   0  13        -0.0118923737
      3   7   1   9        -0.0118426275
      7   3   9   1        -0.0118426275
      4   6   3   2        -0.0116880391
      6   4   2   3        -0.0116880391
      4   4   0   0        -0.0116145412
      3   3   1   1        -0.0115470662
      5   7   0   3         0.0114660818
      7   5   3   0         0.0114660818
      5   6  12   6        -0.0112667374
      6   5   6  12        -0.0112667374
      7   7  12  12        -0.0111000463
      4   5   6   5         0.0110820871
      5   4   5   6         0.0110820871
      5   5   2   2        -0.0109118004
      4   7   9  10         0.0108952485
      7   4  10   9         0.0108952485
      6   7   6   0        -0.0108138500
      7   6   0   6        -0.0108138500
      6   7   7   7        -0.0107666527
      7   6   7   7        -0.0107666527
      4   6   4  17        -0.0106803379
      6   4  17   4        -0.0106803379
      3   3   5   5        -0.0105890241
      6   6   7   9         0.0105515336
      6   6   9   7         0.0105515336
      6   6  14  14        -0.0105442572
      3   3  14  14        -0.0105200787
      3   7   2  10        -0.0104538759
      7   3  10   2        -0.0104538759
      5   6   5   9        -0.0104161656
      6   5   9   5        -0.0104161656
      3   4   0  19         0.0103602978
      4   3  19   0         0.0103602978
      6   6   9   9        -0.0103068764
      3   5  13   5         0.0102947449
      5   3   5  13         0.0102947449
      5   7   3   0         0.0102541968
      7   5   0   3         0.0102541968
      3   4  13   4        -0.0102372043
      4   3   4  13        -0.0102372043
      7   7   3   3        -0.0101108093
      6   7   4   4         0.0100805587
      7   6   4   4         0.0100805587
      3   6  13   7        -0.0100474038
      6   3   7  13        -0.0100474038
      5   5  15  15        -0.0100238796
      5   5  20  20        -0.0100235229
      2   7   0  16        -0.0099947169
      7   2  16   0        -0.0099947169
      4   5   2   4         0.0099682534
      5   4   4   2         0.0099682534
      4   4   0   4         0.0099524678
      4   4   4   0         0.0099524678
      6   6  16  16        -0.0099499436
      4   4   4  15        -0.0099494479
      4   4  15   4        -0.0099494479
      2   5   1  12        -0.0099187558
      5   2  12   1        -0.0099187558
      3   7   5  10        -0.0098679915
      7   3  10   5        -0.0098679915
      6   6  18  18        -0.0098663750
      5   6  12  10        -0.0098599909
      6   5  10  12        -0.0098599909
      4   6  14   3        -0.0098168266
      6   4   3  14        -0.0098168266
      4   4  18  18        -0.0098119118
      4   4  15  15        -0.0097807216
      3   7  14   0        -0.0097543908
      7   3   0  14        -0.0097543908
      3   5   3   2         0.0096929983
      5   3   2   3         0.0096929983
      3   5   5  12        -0.0096923525
      5   3  12   5        -0.0096923525
      3   5  12   2        -0.0096801785
      5   3   2  12        -0.0096801785
      7   7   7   7        -0.0096492999
      3   3   3   3        -0.0096367429
      4   4  14  14        -0.0096086300
      4   4  19  19        -0.0095760554
      3   5   2   3         0.0095513812
      5   3   3   2         0.0095513812
      2   4   0  18         0.0095342441
      4   2  18   0         0.0095342441
      7   7   6  10         0.0095303791
      7   7  10   6         0.0095303791
      4   7   4   8        -0.0095232983
      7   4   8   4        -0.0095232983
      3   5   0  20         0.0094772719
      5   3  20   0         0.0094772719
      6   7   9   9         0.0094768083
      7   6   9   9         0.0094768083
      4   5   9  12         0.0094754133
      5   4  12   9         0.0094754133
      7   7   8   8        -0.0094607506
      2   2  13  13        -0.0093465070
      6   6  17  17        -0.0093295586
      4   6  15  17        -0.0093284192
      6   4  17  15        -0.0093284192
      3   7   0  26         0.0093081112
      7   3  26   0         0.0093081112
      4   6   3  14        -0.0092892190
      6   4  14   3        -0.0092892190
      4   6  19  18        -0.0092537884
      6   4  18  19        -0.0092537884
      5   7   5   8         0.0092179842
      7   5   8   5         0.0092179842
      5   7   5   7         0.0091644029
      7   5   7   5         0.0091644029
      3   6   1   9         0.0091086822
      6   3   9   1         0.0091086822
      4   6  14  16        -0.0090684074
      6   4  16  14        -0.0090684074
      3   4   0   3         0.0090650896
      4   3   3   0         0.0090650896
      3   3   2  14        -0.0090206563
      3   3  14   2        -0.0090206563
      5   5   4  15        -0.0090042062
      5   5  15   4        -0.0090042062
      4   6  16  14        -0.0089824746
      6   4  14  16        -0.0089824746
      2   2   4   4        -0.0089712232
      7   7   1   1        -0.0089306294
      4   7   7   0        -0.0089269937
      7   4   0   7        -0.0089269937
      2   5  12  12        -0.0088958993
      5   2  12  12        -0.0088958993
      3   7  13   9        -0.0088458037
      7   3   9  13        -0.0088458037
      6   7   0  15        -0.0088228892
      7   6  15   0        -0.0088228892
      4   4  16  16        -0.0088225595
      2   5  11   5         0.0087918633
      5   2   5  11         0.0087918633
      6   6  15  15        -0.0087683682
      5   6  15  16         0.0086261326
      6   5  16  15         0.0086261326
      6   7   6  10        -0.0086226272
      7   6  10   6        -0.0086226272
      2   7  10  12        -0.0086072751
      7   2  12  10        -0.0086072751
      3   4   5   9         0.0085986284
      4   3   9   5         0.0085986284
      6   6   0  10        -0.0085949290
      6   6  10   0        -0.0085949290
      3   3   0  10        -0.0085828802
      3   3  10   0        -0.0085828802
      6   6  19  19        -0.0085701746
      3   4   1   6        -0.0085701543
      4   3   6   1        -0.0085701543
      4   6   7   4        -0.0085596997
      6   4   4   7        -0.0085596997
      3   5  11  12        -0.0085488648
      5   3  12  11        -0.0085488648
      2   2   0  10        -0.0085318397
      2   2  10   0        -0.0085318397
      4   4   4   6        -0.0085253076
      4   4   6   4        -0.0085253076
      4   4   7   9         0.0084883994
      4   4   9   7         0.0084883994
      2   4  13   9         0.0084699079
      4   2   9  13         0.0084699079
      2   2  12  13        -0.0084680343
      2   2  13  12        -0.0084680343
      5   5   3   3        -0.0083967464
      6   6   6   6        -0.0083872074
      3   7   3   9        -0.0083630175
      7   3   9   3        -0.0083630175
      6   6  10  10        -0.0083495589
      6   6   3  16        -0.0082070473
      6   6  16   3        -0.0082070473
      4   6  17   4        -0.0081750947
      6   4   4  17        -0.0081750947
      5   7  12   6         0.0081744035
      7   5   6  12         0.0081744035
      5   6   4  16         0.0081711745
      6   5  16   4         0.0081711745
      4   5   8  12         0.0081194149
      5   4  12   8         0.0081194149
      3   3  13  13        -0.0081036365
      4   7   4  20         0.0080100933
      7   4  20   4         0.0080100933
      2   2  10  10        -0.0080092579
      4   5   7  12        -0.0079869375
      5   4  12   7        -0.0079869375
      5   5  21  21        -0.0079459309
      3   3   1  13        -0.0079457077
      3   3  13   1        -0.0079457077
      2   4  11   6        -0.0079272296
      4   2   6  11        -0.0079272296
      2   7  10   1        -0.0078766489
      7   2   1  10        -0.0078766489
      3   5   0  17        -0.0078685195
      5   3  17   0        -0.0078685195
      3   6   5   4        -0.0078635617
      6   3   4   5        -0.0078635617
      5   5   3  12         0.0078632627
      5   5  12   3         0.0078632627
      4   4   2  14        -0.0078323393
      4   4  14   2        -0.0078323393
      3   3   9   9        -0.0078160506
      5   5   1   1        -0.0077857867
      4   4  17  17        -0.0077647110
      4   5  14   4         0.0077632850
      5   4   4  14         0.0077632850
      7   7   7   9        -0.0077515758
      7   7   9   7        -0.0077515758
      6   6   4  15        -0.0077512262
      6   6  15   4        -0.0077512262
      3   3   4   4        -0.0077507798
      7   7  19  19        -0.0077313187
      2   6  11   7        -0.0077190895
      6   2   7  11        -0.0077190895
      3   5   3  14         0.0077065270
      5   3  14   3         0.0077065270
      6   6   2  14        -0.0077025511
      6   6  14   2        -0.0077025511
      3   5   5   1         0.0076854169
      5   3   1   5         0.0076854169
      2   6   0  19         0.0076613019
      6   2  19   0         0.0076613019
      7   7   8   9        -0.0076586639
      7   7   9   8        -0.0076586639
      4   4   7   7        -0.0076358109
      4   5   4  21         0.0076279535
      5   4  21   4         0.0076279535
      2   7   0  13        -0.0076272527
      7   2  13   0        -0.0076272527
      2   4   1   9         0.0076168250
      4   2   9   1         0.0076168250
      3   6   4   2        -0.0076138406
      6   3   2   4        -0.0076138406
      3   5  14   3         0.0075917521
      5   3   3  14         0.0075917521
      2   2  11  11        -0.0075497292
      6   7   7   8        -0.0075474444
      7   6   8   7        -0.0075474444
      4   6  17  15        -0.0075406529
      6   4  15  17        -0.0075406529
      2   5   2   5         0.0075217143
      5   2   5   2         0.0075217143
      3   7   1   8        -0.0074905322
      7   3   8   1        -0.0074905322
      5   5  14  14        -0.0074727402
      4   6   7   6        -0.0074694337
      6   4   6   7        -0.0074694337
      2   7   2   9        -0.0074554234
      7   2   9   2        -0.0074554234
      3   3  16  16        -0.0074408080
      5   5  17  17        -0.0074304935
      5   7   0  16         0.0074123812
      7   5  16   0         0.0074123812
      4   6  18  19        -0.0073949986
      6   4  19  18        -0.0073949986
      4   7   6   8        -0.0073719261
      7   4   8   6        -0.0073719261
      4   5  19  20        -0.0073668159
      5   4  20  19        -0.0073668159
      2   6   2   7        -0.0073604347
      6   2   7   2        -0.0073604347
      4   7   7  10        -0.0073428745
      7   4  10   7        -0.0073428745
      6   7  22   0        -0.0073394694
      7   6   0  22        -0.0073394694
      5   6  20  18        -0.0073286014
      6   5  18  20        -0.0073286014
      5   6  15   3         0.0073266397
      6   5   3  15         0.0073266397
      3   3   2   5        -0.0073140121
      3   3   5   2        -0.0073140121
      3   6  15  14        -0.0071989110
      6   3  14  15        -0.0071989110
      5   7   4  19         0.0071776540
      7   5  19   4         0.0071776540
      2   6  13   4        -0.0071448662
      6   2   4  13        -0.0071448662
      6   6   4  10        -0.0071271389
      6   6  10   4        -0.0071271389
      4   5  16  17         0.0071257316
      5   4  17  16         0.0071257316
      4   5  14  15         0.0071009657
      5   4  15  14         0.0071009657
      5   5   2  14        -0.0070896272
      5   5  14   2        -0.0070896272
      3   4  13   6        -0.0070856290
      4   3   6  13        -0.0070856290
      2   4   2   6        -0.0070741382
      4   2   6   2        -0.0070741382
      4   7   3  11        -0.0070560861
      7   4  11   3        -0.0070560861
      3   5   0   8        -0.0070439165
      5   3   8   0        -0.0070439165
      7   7   2   2        -0.0070256193
      4   7   6   7        -0.0070102381
      7   4   7   6        -0.0070102381
      4   7   9   4        -0.0070042955
      7   4   4   9        -0.0070042955
      3   5  14  12        -0.0069951256
      5   3  12  14        -0.0069951256
      2   5  12  13        -0.0069846072
      5   2  13  12        -0.0069846072
      6   6  11  11        -0.0069834130
      2   7  11   9        -0.0069816892
      7   2   9  11        -0.0069816892
      3   5   3   5         0.0069814939
      5   3   5   3         0.0069814939
      2   2   7   7        -0.0069629229
      3   5  14  16         0.0069252787
      5   3  16  14         0.0069252787
      4   4   3  16        -0.0069046495
      4   4  16   3        -0.0069046495
      3   6  13   9         0.0068983079
      6   3   9  13         0.0068983079
      7   7  20  20        -0.0068784214
      5   7   0  12        -0.0068768658
      7   5  12   0        -0.0068768658
      3   7  10   2        -0.0068659097
      7   3   2  10        -0.0068659097
      2   3   0   9        -0.0068554995
      3   2   9   0        -0.0068554995
      6   6   1   1        -0.0068495661
      2   4  12   9         0.0068382638
      4   2   9  12         0.0068382638
      4   6   9   6         0.0068049552
      6   4   6   9         0.0068049552
      5   5  11  11        -0.0067640860
      2   5   0  22        -0.0067482461
      5   2  22   0        -0.0067482461
      3   5  16  14         0.0067336817
      5   3  14  16         0.0067336817
      2   2  15  15        -0.0067226787
      3   7   9   3        -0.0067054317
      7   3   3   9        -0.0067054317
      2   2   4  15        -0.0066940202
      2   2  15   4        -0.0066940202
      2   5  12  27        -0.0066914220
      5   2  27  12        -0.0066914220
      3   3  10  10        -0.0066661834
      3   6  18   0         0.0066415352
      6   3   0  18         0.0066415352
      2   2   1  13        -0.0066334051
      2   2  13   1        -0.0066334051
      4   7   8  10         0.0066214197
      7   4  10   8         0.0066214197
      4   6   6   9         0.0066116150
      6   4   9   6         0.0066116150
      2   6  13  10        -0.0066077417
      6   2  10  13        -0.0066077417
      5   7  15  19         0.0065967050
      7   5  19  15         0.0065967050
      5   7   2   9         0.0065379724
      7   5   9   2         0.0065379724
      7   7   1   3        -0.0065290334
      7   7   3   1        -0.0065290334
      7   7   1  12        -0.0065231362
      7   7  12   1        -0.0065231362
      3   7   9   1        -0.0065124495
      7   3   1   9        -0.0065124495
      5   6   1   4         0.0065011784
      6   5   4   1         0.0065011784
      6   6   6  10        -0.0064938396
      6   6  10   6        -0.0064938396
      5   6  17  14         0.0064880868
      6   5  14  17         0.0064880868
      3   6   3   7        -0.0064811735
      6   3   7   3        -0.0064811735
      2   3   2   3        -0.0064702117
      3   2   3   2        -0.0064702117
      2   6   1  10        -0.0064357825
      6   2  10   1        -0.0064357825
      5   7  13   0        -0.0064260781
      7   5   0  13        -0.0064260781
      2   7  10  13        -0.0064260620
      7   2  13  10        -0.0064260620
      4   5   3   9        -0.0064219776
      5   4   9   3        -0.0064219776
      4   7   8   0         0.0064037088
      7   4   0   8         0.0064037088
      3   5   0   9         0.0063963288
      5   3   9   0         0.0063963288
      2   7  10   3        -0.0063930148
      7   2   3  10        -0.0063930148
      3   4   2   9         0.0063601558
      4   3   9   2         0.0063601558
      3   3  19  19        -0.0063432526
      2   7  11   7        -0.0063266483
      7   2   7  11        -0.0063266483
      3   4   4  13        -0.0063165274
      4   3  13   4        -0.0063165274
      4   7   3   2         0.0063149867
      7   4   2   3         0.0063149867
      3   4   4   3        -0.0063038059
      4   3   3   4        -0.0063038059
      3   3  18  18        -0.0062988104
      3   6   4  14        -0.0062968611
      6   3  14   4        -0.0062968611
      3   3   3  16        -0.0062785590
      3   3  16   3        -0.0062785590
      2   2  20  20        -0.0062766521
      7   7  18  18        -0.0062698056
      6   7   9   8         0.0062638213
      7   6   8   9         0.0062638213
      6   7   4   0        -0.0062529417
      7   6   0   4        -0.0062529417
      3   3  17  17        -0.0062353952
      2   2   1  12        -0.0062141796
      2   2  12   1        -0.0062141796
      3   7  12  20         0.0062088425
      7   3  20  12         0.0062088425
      3   6   5  10        -0.0061925778
      6   3  10   5        -0.0061925778
      3   6   2   6        -0.0061912587
      6   3   6   2        -0.0061912587
      3   3  15  15        -0.0061831055
      5   5  22  22        -0.0061724558
      3   5  12  21         0.0061711191
      5   3  21  12         0.0061711191
      7   7   5   5        -0.0061674048
      3   4  15  16        -0.0061656124
      4   3  16  15        -0.0061656124
      4   6   7  10        -0.0061654477
      6   4  10   7        -0.0061654477
      4   6   6   8         0.0061469265
      6   4   8   6         0.0061469265
      2   6   4   1        -0.0061392559
      6   2   1   4        -0.0061392559
      3   4   5   7        -0.0061375565
      4   3   7   5        -0.0061375565
      3   4   3   4        -0.0061097548
      4   3   4   3        -0.0061097548
      6   7   4  10        -0.0061037899
      7   6  10   4        -0.0061037899
      3   4  17  14        -0.0061011483
      4   3  14  17        -0.0061011483
      4   5  15  11        -0.0060931848
      5   4  11  15        -0.0060931848
      5   5   5  21        -0.0060917971
      5   5  21   5        -0.0060917971
      3   6   4   5        -0.0060809239
      6   3   5   4        -0.0060809239
      3   7  14  10        -0.0060802362
      7   3  10  14        -0.0060802362
      7   7  13  13        -0.0060621120
      4   5   3  17         0.0060486581
      5   4  17   3         0.0060486581
      2   3   1   5        -0.0060441956
      3   2   5   1        -0.0060441956
      7   7  26  26        -0.0060421768
      4   7  15  20         0.0060413750
      7   4  20  15         0.0060413750
      2   7   3  10        -0.0060328269
      7   2  10   3        -0.0060328269
      4   7   0  17        -0.0060142381
      7   4  17   0        -0.0060142381
      2   7   0  23        -0.0060052714
      7   2  23   0        -0.0060052714
      3   3  20  20        -0.0060015824
      2   2   1   1        -0.0059985301
      4   4   9  17         0.0059934430
      4   4  17   9         0.0059934430
      2   6   4  13        -0.0059884049
      6   2  13   4        -0.0059884049
      3   7   1   7        -0.0059837516
      7   3   7   1        -0.0059837516
      5   5   0   4         0.0059802934
      5   5   4   0         0.0059802934
      4   7   9   6        -0.0059753815
      7   4   6   9        -0.0059753815
      5   7   1   4        -0.0059659893
      7   5   4   1        -0.0059659893
      3   4  19   0         0.0059586842
      4   3   0  19         0.0059586842
      7   7   7   8        -0.0059576877
      7   7   8   7        -0.0059576877
      4   6   0  17         0.0059375269
      6   4  17   0         0.0059375269
      2   4  13   7        -0.0059358239
      4   2   7  13        -0.0059358239
      4   6   9  10         0.0059241729
      6   4  10   9         0.0059241729
      3   3  11  11        -0.0059164214
      7   7   0  15        -0.0058755024
      7   7  15   0        -0.0058755024
      4   4   0  15         0.0058671392
      4   4  15   0         0.0058671392
      7   7   3  12        -0.0058585369
      7   7  12   3        -0.0058585369
      6   6  13  13        -0.0058504514
      3   7  13   7        -0.0058427225
      7   3   7  13        -0.0058427225
      4   6  16  11         0.0058271203
      6   4  11  16         0.0058271203
      3   4   0  16         0.0058220108
      4   3  16   0         0.0058220108
      2   5  27  12        -0.0058192961
      5   2  12  27        -0.0058192961
      4   6  11  16         0.0058175810
      6   4  16  11         0.0058175810
      2   6   4  12        -0.0057999617
      6   2  12   4        -0.0057999617
      3   6  14   4        -0.0057931642
      6   3   4  14        -0.0057931642
      7   7   0   4        -0.0057878789
      7   7   4   0        -0.0057878789
      4   5  14   0        -0.0057781961
      5   4   0  14        -0.0057781961
      4   7  18  12         0.0057746209
      7   4  12  18         0.0057746209
      4   4   1   1        -0.0057716839
      3   6   5   6        -0.0057713331
      6   3   6   5        -0.0057713331
      4   4  11  11        -0.0057694104
      2   2   9   9        -0.0057680921
      2   6   1   4        -0.0057599828
      6   2   4   1        -0.0057599828
      4   7   4   7        -0.0057556510
      7   4   7   4        -0.0057556510
      3   6   7   1        -0.0057542864
      6   3   1   7        -0.0057542864
      5   6   3   4         0.0057455386
      6   5   4   3         0.0057455386
      2   4  18   0         0.0057353211
      4   2   0  18         0.0057353211
      6   6  24  24        -0.0057293842
      2   3   3   2        -0.0057286774
      3   2   2   3        -0.0057286774
      3   3   3  12         0.0057243635
      3   3  12   3         0.0057243635
      5   7  20  26        -0.0057183635
      7   5  26  20        -0.0057183635
      3   4   2  24        -0.0056917086
      4   3  24   2        -0.0056917086
      7   7   6   6        -0.0056793679
      4   7  18  19         0.0056764342
      7   4  19  18         0.0056764342
      2   6  13   6        -0.0056716100
      6   2   6  13        -0.0056716100
      5   7  10  12        -0.0056475511
      7   5  12  10        -0.0056475511
      2   6  12  10        -0.0056470046
      6   2  10  12        -0.0056470046
      2   7  23   0        -0.0056411801
      7   2   0  23        -0.0056411801
      2   5   2   2         0.0056363593
      5   2   2   2         0.0056363593
      5   5  13  13        -0.0056269799
      2   2  18  18        -0.0056136774
      3   4   3   6        -0.0056124262
      4   3   6   3        -0.0056124262
      2   3  13   5        -0.0055934962
      3   2   5  13        -0.0055934962
      3   7  13   8        -0.0055867714
      7   3   8  13        -0.0055867714
      5   7  16   0         0.0055796894
      7   5   0  16         0.0055796894
      5   7  21  20        -0.0055646638
      7   5  20  21        -0.0055646638
      4   4  13  13        -0.0055532208
      6   7  17  20         0.0055489771
      7   6  20  17         0.0055489771
      3   5  10  20         0.0055415649
      5   3  20  10         0.0055415649
      3   5  12  14        -0.0055376680
      5   3  14  12        -0.0055376680
      3   6   2   4        -0.0055321838
      6   3   4   2        -0.0055321838
      4   6   2  16        -0.0055233102
      6   4  16   2        -0.0055233102
      3   5   2  16         0.0055012012
      5   3  16   2         0.0055012012
      3   3  21  21        -0.0054974796
      2   3   7  10        -0.0054792877
      3   2  10   7        -0.0054792877
      6   6  21  21        -0.0054692535
      3   4   2   7        -0.0054645874
      4   3   7   2        -0.0054645874
      3   3   5  14        -0.0054580926
      3   3  14   5        -0.0054580926
      5   7  12  15        -0.0054543793
      7   5  15  12        -0.0054543793
      5   6  13   0        -0.0054538785
      6   5   0  13        -0.0054538785
      3   6  17  16        -0.0054532119
      6   3  16  17        -0.0054532119
      2   6  12   4        -0.0054362733
      6   2   4  12        -0.0054362733
      6   6  12  12        -0.0054318883
      4   4  21  21        -0.0054272931
      3   6  21   4        -0.0054269638
      6   3   4  21        -0.0054269638
      2   4   9   1         0.0054240371
      4   2   1   9         0.0054240371
      4   5   2   0        -0.0054173057
      5   4   0   2        -0.0054173057
      6   6   0   6        -0.0054130724
      6   6   6   0        -0.0054130724
      3   4   4   1        -0.0054103913
      4   3   1   4        -0.0054103913
      3   4   9   5         0.0054016099
      4   3   5   9         0.0054016099
      6   6  23  23        -0.0053974518
      6   6   3  13        -0.0053920669
      6   6  13   3        -0.0053920669
      4   4  12  12        -0.0053881087
      2   4   1   7        -0.0053821905
      4   2   7   1        -0.0053821905
      5   6  11  17        -0.0053792011
      6   5  17  11        -0.0053792011
      5   6   0   3        -0.0053575427
      6   5   3   0        -0.0053575427
      3   7  10  26         0.0053567026
      7   3  26  10         0.0053567026
      2   3   2  13        -0.0053550688
      3   2  13   2        -0.0053550688
      3   7  11  10        -0.0053492561
      7   3  10  11        -0.0053492561
      3   6  14  15        -0.0053487532
      6   3  15  14        -0.0053487532
      5   5  16  16        -0.0053412970
      2   6   1   6        -0.0053358204
      6   2   6   1        -0.0053358204
      3   6   3  24        -0.0053306173
      6   3  24   3        -0.0053306173
      2   3  14   3        -0.0053289691
      3   2   3  14        -0.0053289691
      4   5   0   5        -0.0053212371
      5   4   5   0        -0.0053212371
      4   6   8   6         0.0053123493
      6   4   6   8         0.0053123493
      3   6  12  24         0.0053059029
      6   3  24  12         0.0053059029
      3   7  10  14        -0.0052978831
      7   3  14  10        -0.0052978831
      3   6   2  10        -0.0052954760
      6   3  10   2        -0.0052954760
      4   5   6   2         0.0052877170
      5   4   2   6         0.0052877170
      3   6  20  19         0.0052846243
      6   3  19  20         0.0052846243
      2   3  18  19        -0.0052804340
      3   2  19  18        -0.0052804340
      3   7  10   5        -0.0052773421
      7   3   5  10        -0.0052773421
      2   3   3  14        -0.0052720736
      3   2  14   3        -0.0052720736
      3   6   2  22        -0.0052626539
      6   3  22   2        -0.0052626539
      5   5   3  16        -0.0052555980
      5   5  16   3        -0.0052555980
      3   6  12  17        -0.0052511774
      6   3  17  12        -0.0052511774
      5   5   0  15         0.0052471057
      5   5  15   0         0.0052471057
      3   3   3  13        -0.0052455129
      3   3  13   3        -0.0052455129
      5   6  16  15         0.0052434446
      6   5  15  16         0.0052434446
      4   6   0   9        -0.0052360224
      6   4   9   0        -0.0052360224
      7   7   5  11         0.0052258912
      7   7  11   5         0.0052258912
      4   4  24  24        -0.0052154906
      2   4   2   4        -0.0052027400
      4   2   4   2        -0.0052027400
      3   4  12  15        -0.0052024897
      4   3  15  12        -0.0052024897
      2   2  17  17        -0.0051951911
      4   6  17   0         0.0051925563
      6   4   0  17         0.0051925563
      4   6   2  13        -0.0051871952
      6   4  13   2        -0.0051871952
      4   6   8   0         0.0051849618
      6   4   0   8         0.0051849618
      2   6   1   0        -0.0051802199
      6   2   0   1        -0.0051802199
      2   5   5  11         0.0051785579
      5   2  11   5         0.0051785579
      5   6  12  22        -0.0051743900
      6   5  22  12        -0.0051743900
      2   3   2   1        -0.0051723633
      3   2   1   2        -0.0051723633
      3   5  20   0         0.0051543095
      5   3   0  20         0.0051543095
      6   7   3  19        -0.0051515703
      7   6  19   3        -0.0051515703
      6   6   9  17         0.0051513122
      6   6  17   9         0.0051513122
      2   5   3   3         0.0051381840
      5   2   3   3         0.0051381840
      4   7   0  20        -0.0051365158
      7   4  20   0        -0.0051365158
      2   2   5   5        -0.0051169050
      3   6  11   6        -0.0051127030
      6   3   6  11        -0.0051127030
      3   6   7  13        -0.0051104091
      6   3  13   7        -0.0051104091
      6   6   5   5        -0.0051069182
      2   7  16   0        -0.0051059244
      7   2   0  16        -0.0051059244
      4   5  18  22         0.0051052149
      5   4  22  18         0.0051052149
      2   4  12  17        -0.0051000653
      4   2  17  12        -0.0051000653
      4   5  15  21         0.0050998319
      5   4  21  15         0.0050998319
      5   7  23   0        -0.0050967943
      7   5   0  23        -0.0050967943
      2   5   0  25        -0.0050964408
      5   2  25   0        -0.0050964408
      2   4   9  13         0.0050781282
      4   2  13   9         0.0050781282
      2   5   4  15        -0.0050722939
      5   2  15   4        -0.0050722939
      5   6   0  19        -0.0050689476
      6   5  19   0        -0.0050689476
      6   7  18  26        -0.0050681623
      7   6  26  18        -0.0050681623
      2   3  19  18        -0.0050659224
      3   2  18  19        -0.0050659224
      5   6   2  24         0.0050654153
      6   5  24   2         0.0050654153
      4   7  19  26        -0.0050647213
      7   4  26  19        -0.0050647213
      4   5  11  15        -0.0050578542
      5   4  15  11        -0.0050578542
      3   5  16   2         0.0050521556
      5   3   2  16         0.0050521556
      5   7   9   5         0.0050413820
      7   5   5   9         0.0050413820
      2   3  13   2        -0.0050331459
      3   2   2  13        -0.0050331459
      5   6   9   2        -0.0050200015
      6   5   2   9        -0.0050200015
      3   4   9   2         0.0050162106
      4   3   2   9         0.0050162106
      6   7  18  11        -0.0050159280
      7   6  11  18        -0.0050159280
      3   4  14  17        -0.0050129701
      4   3  17  14        -0.0050129701
      7   7   0  25        -0.0050052228
      7   7  25   0        -0.0050052228
      4   7   3   5         0.0049943844
      7   4   5   3         0.0049943844
      6   6  11  14         0.0049906833
      6   6  14  11         0.0049906833
      5   5  11  21         0.0049831358
      5   5  21  11         0.0049831358
      5   7   9   2         0.0049706833
      7   5   2   9         0.0049706833
      3   6   9   1         0.0049579997
      6   3   1   9         0.0049579997
      3   3  24  24        -0.0049525376
      2   2   2   2        -0.0049357871
      3   5  17   0        -0.0049355804
      5   3   0  17        -0.0049355804
      5   5  27  27        -0.0049223898
      6   7   8   9         0.0049183164
      7   6   9   8         0.0049183164
      7   7   3  16        -0.0049147100
      7   7  16   3        -0.0049147100
      2   6  12   0        -0.0049131404
      6   2   0  12        -0.0049131404
      3   3  22  22        -0.0049122168
      5   6  21  17         0.0049030560
      6   5  17  21         0.0049030560
      4   4  23  23        -0.0048967003
      3   6  10  18         0.0048959700
      6   3  18  10         0.0048959700
      2   3   4   9         0.0048952182
      3   2   9   4         0.0048952182
      2   2  21  21        -0.0048936625
      5   5   1  13        -0.0048693392
      5   5  13   1        -0.0048693392
      2   5   7  20         0.0048693199
      5   2  20   7         0.0048693199
      5   5   7   7        -0.0048608023
      3   3   1   3        -0.0048555556
      3   3   3   1        -0.0048555556
      2   2  19  19        -0.0048529811
      4   6  15   9         0.0048511565
      6   4   9  15         0.0048511565
      3   5   5   3         0.0048460737
      5   3   3   5         0.0048460737
      3   6  15  11         0.0048357678
      6   3  11  15         0.0048357678
      2   3  14  16        -0.0048232498
      3   2  16  14        -0.0048232498
      5   6   2   7         0.0048138438
      6   5   7   2         0.0048138438
      7   7   1  13        -0.0048026281
      7   7  13   1        -0.0048026281
      6   6  25  25        -0.0047862949
      4   7   3  14         0.0047822132
      7   4  14   3         0.0047822132
      3   3   7   7        -0.0047807101
      2   7   2   7        -0.0047769888
      7   2   7   2        -0.0047769888
      4   4  22  22        -0.0047598002
      4   6  13   2        -0.0047452546
      6   4   2  13        -0.0047452546
      4   5   3   7         0.0047355671
      5   4   7   3         0.0047355671
      4   7   2   3         0.0047316095
      7   4   3   2         0.0047316095
      3   4   9  18         0.0047150319
      4   3  18   9         0.0047150319
      2   5  14  14         0.0047108609
      5   2  14  14         0.0047108609
      2   6  19   0         0.0047060374
      6   2   0  19         0.0047060374
      3   6   3   9         0.0047053550
      6   3   9   3         0.0047053550
      5   6  16   4         0.0046951678
      6   5   4  16         0.0046951678
      3   3   6   6        -0.0046945505
      3   4  10  19         0.0046868211
      4   3  19  10         0.0046868211
      3   4  14   9         0.0046839844
      4   3   9  14         0.0046839844
      4   6  21  23         0.0046820902
      6   4  23  21         0.0046820902
      6   6   1  13        -0.0046778069
      6   6  13   1        -0.0046778069
      4   5  22   2         0.0046773290
      5   4   2  22         0.0046773290
      6   6   0  15         0.0046747909
      6   6  15   0         0.0046747909
      4   5  17  16         0.0046695349
      5   4  16  17         0.0046695349
      4   5  24  12        -0.0046691250
      5   4  12  24        -0.0046691250
      2   6  10  19         0.0046661257
      6   2  19  10         0.0046661257
      4   6   5   1        -0.0046628380
      6   4   1   5        -0.0046628380
      2   3   0  17         0.0046560177
      3   2  17   0         0.0046560177
      4   5   9   3        -0.0046548448
      5   4   3   9        -0.0046548448
      5   5   9   9        -0.0046542379
      3   5  12  11        -0.0046464891
      5   3  11  12        -0.0046464891
      3   4  16  15        -0.0046451982
      4   3  15  16        -0.0046451982
      1   1  42  42        -0.0046441753
      2   5  12  35        -0.0046427483
      5   2  35  12        -0.0046427483
      2   5  14   5         0.0046426325
      5   2   5  14         0.0046426325
      0   0  42  42        -0.0046407787
      1   1  43  43        -0.0046400380
      0   1  42  43        -0.0046400321
      1   0  43  42        -0.0046400321
      0   1  43  42        -0.0046399676
      1   0  42  43        -0.0046399676
      4   6  16   2        -0.0046383030
      6   4   2  16        -0.0046383030
      0   0  43  43        -0.0046367214
      5   7   8  11         0.0046360321
      7   5  11   8         0.0046360321
      3   6   9  23        -0.0046335410
      6   3  23   9        -0.0046335410
      7   7   0  28        -0.0046194458
      7   7  28   0        -0.0046194458
      2   3  16  14        -0.0046181954
      3   2  14  16        -0.0046181954
      3   6  16  17        -0.0046097412
      6   3  17  16        -0.0046097412
      6   6   7  17        -0.0046069075
      6   6  17   7        -0.0046069075
      4   6   1   5        -0.0046067732
      6   4   5   1        -0.0046067732
      4   6  20   4        -0.0046043685
      6   4   4  20        -0.0046043685
      4   5   2  15         0.0045989956
      5   4  15   2         0.0045989956
      3   4   3  22        -0.0045821310
      4   3  22   3        -0.0045821310
      5   5   2   5        -0.0045790633
      5   5   5   2        -0.0045790633
      4   7  18   1         0.0045680046
      7   4   1  18         0.0045680046
      3   4  12   6         0.0045668521
      4   3   6  12         0.0045668521
      2   3   9   0        -0.0045621642
      3   2   0   9        -0.0045621642
      2   7  14   9        -0.0045616854
      7   2   9  14        -0.0045616854
      6   7  14  11        -0.0045550190
      7   6  11  14        -0.0045550190
      6   7  16  19        -0.0045376329
      7   6  19  16        -0.0045376329
[...]
      4   1   5  29         0.0000013473
      0   4  42   0        -0.0000013397
      4   0   0  42        -0.0000013397
      0   1  26  19        -0.0000013313
      1   0  19  26        -0.0000013313
      3   7  16   7         0.0000013201
      7   3   7  16         0.0000013201
      3   3  30  37         0.0000013191
      3   3  37  30         0.0000013191
      4   7  43  26         0.0000013081
      7   4  26  43         0.0000013081
      1   1   5  30        -0.0000012995
      1   1  30   5        -0.0000012995
      0   6  16   6        -0.0000012875
      6   0   6  16        -0.0000012875
      0   3   1  30        -0.0000012812
      3   0  30   1        -0.0000012812
      3   5  18  43        -0.0000012810
      5   3  43  18        -0.0000012810
      0   6  10  35        -0.0000012591
      6   0  35  10        -0.0000012591
      0   7  24  34        -0.0000012579
      7   0  34  24        -0.0000012579
      0   1  18   3         0.0000012577
      1   0   3  18         0.0000012577
      6   7   1  43        -0.0000012542
      7   6  43   1        -0.0000012542
      0   1   3  18         0.0000012497
      1   0  18   3         0.0000012497
      0   0  18  18        -0.0000012369
      0   7  42  20         0.0000012333
      7   0  20  42         0.0000012333
      0   4  15  30        -0.0000012299
      4   0  30  15        -0.0000012299
      0   2  11  30         0.0000012166
      2   0  30  11         0.0000012166
      6   7  27  43         0.0000012165
      7   6  43  27         0.0000012165
      1   1   2  18         0.0000012116
      1   1  18   2         0.0000012116
      1   5   2  16        -0.0000012023
      5   1  16   2        -0.0000012023
      0   3  18  41         0.0000011975
      3   0  41  18         0.0000011975
      6   7  42  37         0.0000011968
      7   6  37  42         0.0000011968
      1   5  18  43        -0.0000011893
      5   1  43  18        -0.0000011893
      1   1  30  34        -0.0000011851
      1   1  34  30        -0.0000011851
      0   6   2  39         0.0000011781
      6   0  39   2         0.0000011781
      6   6  14  42         0.0000011775
      6   6  42  14         0.0000011775
      5   6  42   7        -0.0000011713
      6   5   7  42        -0.0000011713
      1   5  13  30        -0.0000011694
      5   1  30  13        -0.0000011694
      0   5  30  26        -0.0000011605
      5   0  26  30        -0.0000011605
      1   7  39  43         0.0000011592
      7   1  43  39         0.0000011592
      1   4   2   8         0.0000011535
      4   1   8   2         0.0000011535
      0   3   5  19        -0.0000011503
      3   0  19   5        -0.0000011503
      0   3  20  15         0.0000011499
      3   0  15  20         0.0000011499
      4   7  37  43        -0.0000011497
      7   4  43  37        -0.0000011497
      1   3  12  27         0.0000011442
      3   1  27  12         0.0000011442
      3   3  26  42         0.0000011374
      3   3  42  26         0.0000011374
      0   0  30  34        -0.0000011357
      0   0  34  30        -0.0000011357
      5   7  17  42        -0.0000011280
      7   5  42  17        -0.0000011280
      1   7  24  13        -0.0000011203
      7   1  13  24        -0.0000011203
      1   5  13  18        -0.0000011197
      5   1  18  13        -0.0000011197
      0   7   4  23        -0.0000011155
      7   0  23   4        -0.0000011155
      0   1  18  16        -0.0000011075
      1   0  16  18        -0.0000011075
      2   7  43   6        -0.0000011068
      7   2   6  43        -0.0000011068
      1   5  43  30         0.0000011059
      5   1  30  43         0.0000011059
      0   6  43  22        -0.0000010992
      6   0  22  43        -0.0000010992
      0   1  16  18        -0.0000010862
      1   0  18  16        -0.0000010862
      0   6  43  32        -0.0000010801
      6   0  32  43        -0.0000010801
      0   6  42   7        -0.0000010800
      6   0   7  42        -0.0000010800
      1   5  40  19         0.0000010776
      5   1  19  40         0.0000010776
      1   5  11  19        -0.0000010760
      5   1  19  11        -0.0000010760
      0   5  18  42        -0.0000010671
      5   0  42  18        -0.0000010671
      3   4  17  42        -0.0000010399
      4   3  42  17        -0.0000010399
      4   7  43  37         0.0000010316
      7   4  37  43         0.0000010316
      1   3  21  18         0.0000010264
      3   1  18  21         0.0000010264
      1   4  29  11         0.0000010140
      4   1  11  29         0.0000010140
      7   7  36  43        -0.0000010123
      7   7  43  36        -0.0000010123
      1   1  18  18        -0.0000010064
      0   4  43   9        -0.0000009996
      4   0   9  43        -0.0000009996
      0   1  19  26        -0.0000009933
      1   0  26  19        -0.0000009933
      1   1  25  38         0.0000009929
      1   1  38  25         0.0000009929
      5   7  43   4        -0.0000009785
      7   5   4  43        -0.0000009785
      0   0   2  18         0.0000009771
      0   0  18   2         0.0000009771
      0   3   3  30        -0.0000009569
      3   0  30   3        -0.0000009569
      0   4  11  10         0.0000009546
      4   0  10  11         0.0000009546
      0   1  25  20        -0.0000009435
      1   0  20  25        -0.0000009435
      0   1  26  27         0.0000009404
      1   0  27  26         0.0000009404
      0   4  42   4         0.0000009379
      4   0   4  42         0.0000009379
      1   2  18  41        -0.0000009336
      2   1  41  18        -0.0000009336
      1   5  30  43         0.0000009329
      5   1  43  30         0.0000009329
      1   4  24  30         0.0000009319
      4   1  30  24         0.0000009319
      3   7  42  32         0.0000009250
      7   3  32  42         0.0000009250
      0   1   5  35        -0.0000009103
      1   0  35   5        -0.0000009103
      0   4  28  34         0.0000009092
      4   0  34  28         0.0000009092
      0   7  39  42         0.0000009055
      7   0  42  39         0.0000009055
      7   7  27  41         0.0000009035
      7   7  41  27         0.0000009035
      1   6  30  22        -0.0000008594
      6   1  22  30        -0.0000008594
      1   4  42   9        -0.0000008431
      4   1   9  42        -0.0000008431
      0   2  23  16        -0.0000008402
      2   0  16  23        -0.0000008402
      0   2  30  37        -0.0000008347
      2   0  37  30        -0.0000008347
      0   4  42   6        -0.0000008285
      4   0   6  42        -0.0000008285
      1   1   3  23        -0.0000008250
      1   1  23   3        -0.0000008250
      6   7  42  11        -0.0000008177
      7   6  11  42        -0.0000008177
      0   6  43  10         0.0000008160
      6   0  10  43         0.0000008160
      0   4  42  28        -0.0000008132
      4   0  28  42        -0.0000008132
      1   4   6   3        -0.0000008101
      4   1   3   6        -0.0000008101
      1   3   3  35         0.0000008079
      3   1  35   3         0.0000008079
      3   5  42  43         0.0000007933
      5   3  43  42         0.0000007933
      0   6  43  15         0.0000007931
      6   0  15  43         0.0000007931
      1   5  30   1         0.0000007928
      5   1   1  30         0.0000007928
      0   4  42  22         0.0000007915
      4   0  22  42         0.0000007915
      1   7  43  24         0.0000007854
      7   1  24  43         0.0000007854
      2   2  31  36        -0.0000007715
      2   2  36  31        -0.0000007715
      3   6  41  17        -0.0000007665
      6   3  17  41        -0.0000007665
      1   7  18  28         0.0000007653
      7   1  28  18         0.0000007653
      5   7  42  24        -0.0000007523
      7   5  24  42        -0.0000007523
      0   6  39  14         0.0000007476
      6   0  14  39         0.0000007476
      1   6  15  14        -0.0000007419
      6   1  14  15        -0.0000007419
      2   6  43   4         0.0000007394
      6   2   4  43         0.0000007394
      0   3  35  18        -0.0000007378
      3   0  18  35        -0.0000007378
      2   5  43   1        -0.0000007291
      5   2   1  43        -0.0000007291
      0   5  21  42         0.0000007253
      5   0  42  21         0.0000007253
      1   3  11  30        -0.0000007166
      3   1  30  11        -0.0000007166
      0   4  43  29         0.0000007118
      4   0  29  43         0.0000007118
      1   5  30  36        -0.0000006923
      5   1  36  30        -0.0000006923
      0   4  43   7         0.0000006917
      4   0   7  43         0.0000006917
      1   5  42  19        -0.0000006898
      5   1  19  42        -0.0000006898
      1   7  42  28        -0.0000006862
      7   1  28  42        -0.0000006862
      0   6  43  28        -0.0000006824
      6   0  28  43        -0.0000006824
      2   3  30  43        -0.0000006698
      3   2  43  30        -0.0000006698
      0   7  43  10         0.0000006698
      7   0  10  43         0.0000006698
      4   7  41  42        -0.0000006524
      7   4  42  41        -0.0000006524
      5   7  40  33        -0.0000006521
      7   5  33  40        -0.0000006521
      1   4  28  16        -0.0000006502
      4   1  16  28        -0.0000006502
      0   6  42   8        -0.0000006458
      6   0   8  42        -0.0000006458
      6   7  42  21         0.0000006433
      7   6  21  42         0.0000006433
      6   7   2  42         0.0000006405
      7   6  42   2         0.0000006405
      1   5  20   6         0.0000006400
      5   1   6  20         0.0000006400
      1   6  30  25        -0.0000006393
      6   1  25  30        -0.0000006393
      4   4  30  42         0.0000006295
      4   4  42  30         0.0000006295
      0   2   3  19         0.0000006277
      2   0  19   3         0.0000006277
      0   1  20  25        -0.0000006275
      1   0  25  20        -0.0000006275
      0   3  18  27         0.0000006255
      3   0  27  18         0.0000006255
      2   4  42  10         0.0000005804
      4   2  10  42         0.0000005804
      1   5  18  12        -0.0000005654
      5   1  12  18        -0.0000005654
      2   3  31  14         0.0000005574
      3   2  14  31         0.0000005574
      1   5  43  37        -0.0000005520
      5   1  37  43        -0.0000005520
      1   6  37   4        -0.0000005509
      6   1   4  37        -0.0000005509
      0   3  18  35         0.0000005469
      3   0  35  18         0.0000005469
      1   2  29  15         0.0000005450
      2   1  15  29         0.0000005450
      1   2  14   3         0.0000005431
      2   1   3  14         0.0000005431
      1   4  25  43         0.0000005413
      4   1  43  25         0.0000005413
      2   5  42  37         0.0000005355
      5   2  37  42         0.0000005355
      1   5  19  42         0.0000005324
      5   1  42  19         0.0000005324
      1   5  43  18        -0.0000005274
      5   1  18  43        -0.0000005274
      1   4  19  15        -0.0000005271
      4   1  15  19        -0.0000005271
      1   4  42  20        -0.0000005244
      4   1  20  42        -0.0000005244
      7   7  34  42         0.0000005197
      7   7  42  34         0.0000005197
      0   3  32  33        -0.0000005194
      3   0  33  32        -0.0000005194
      1   4  29  21         0.0000005185
      4   1  21  29         0.0000005185
      3   4  21  39        -0.0000005116
      4   3  39  21        -0.0000005116
      3   7  43   7        -0.0000005031
      7   3   7  43        -0.0000005031
      0   0  18  37        -0.0000005029
      0   0  37  18        -0.0000005029
      1   6  30   6         0.0000005008
      6   1   6  30         0.0000005008
      1   7  43  33         0.0000005002
      7   1  33  43         0.0000005002
      0   6  43   6        -0.0000004954
      6   0   6  43        -0.0000004954
      0   5  43  19        -0.0000004883
      5   0  19  43        -0.0000004883
      3   5  42  19        -0.0000004876
      5   3  19  42        -0.0000004876
      1   4  19  22         0.0000004875
      4   1  22  19         0.0000004875
      0   4  42  10         0.0000004821
      4   0  10  42         0.0000004821
      0   7  42   8        -0.0000004722
      7   0   8  42        -0.0000004722
      1   6  42   4        -0.0000004686
      6   1   4  42        -0.0000004686
      6   7  42   2         0.0000004681
      7   6   2  42         0.0000004681
      0   5  30  42         0.0000004640
      5   0  42  30         0.0000004640
      1   3  16  13         0.0000004531
      3   1  13  16         0.0000004531
      1   7  31  17         0.0000004457
      7   1  17  31         0.0000004457
      1   5  19  37         0.0000004401
      5   1  37  19         0.0000004401
      0   5  43  16         0.0000004334
      5   0  16  43         0.0000004334
      5   7  43   0        -0.0000004071
      7   5   0  43        -0.0000004071
      1   2  24  15        -0.0000003933
      2   1  15  24        -0.0000003933
      1   3   2  18         0.0000003878
      3   1  18   2         0.0000003878
      0   6   0  35        -0.0000003839
      6   0  35   0        -0.0000003839
      0   1  16  30        -0.0000003824
      1   0  30  16        -0.0000003824
      4   7  34  43        -0.0000003767
      7   4  43  34        -0.0000003767
      0   2  18  14        -0.0000003758
      2   0  14  18        -0.0000003758
      3   5  18  12         0.0000003733
      5   3  12  18         0.0000003733
      1   4  43   6        -0.0000003720
      4   1   6  43        -0.0000003720
      1   7  20  43        -0.0000003712
      7   1  43  20        -0.0000003712
      3   5  19  42        -0.0000003708
      5   3  42  19        -0.0000003708
      1   7  43   7         0.0000003403
      7   1   7  43         0.0000003403
      1   6  18  38         0.0000003342
      6   1  38  18         0.0000003342
      1   4  43  25         0.0000003273
      4   1  25  43         0.0000003273
      0   5  42  18         0.0000003269
      5   0  18  42         0.0000003269
      0   7  20  42         0.0000003230
      7   0  42  20         0.0000003230
      0   6  42   9        -0.0000003138
      6   0   9  42        -0.0000003138
      0   3  26   1         0.0000003137
      3   0   1  26         0.0000003137
      3   3  31  43        -0.0000003119
      3   3  43  31        -0.0000003119
      2   5  43  41        -0.0000003109
      5   2  41  43        -0.0000003109
      1   2   8  28         0.0000003068
      2   1  28   8         0.0000003068
      1   5  30  23        -0.0000003055
      5   1  23  30        -0.0000003055
      1   4  24  14         0.0000003025
      4   1  14  24         0.0000003025
      0   4  17   3         0.0000002968
      4   0   3  17         0.0000002968
      2   3  19  42         0.0000002928
      3   2  42  19         0.0000002928
      5   6  25  16         0.0000002852
      6   5  16  25         0.0000002852
      0   7  24  14         0.0000002774
      7   0  14  24         0.0000002774
      0   0   5  30         0.0000002714
      0   0  30   5         0.0000002714
      0   7   7  37        -0.0000002586
      7   0  37   7        -0.0000002586
      0   4  43   8         0.0000002562
      4   0   8  43         0.0000002562
      1   4  43  10        -0.0000002555
      4   1  10  43        -0.0000002555
      5   6  42  24         0.0000002338
      6   5  24  42         0.0000002338
      6   7   7  39         0.0000002316
      7   6  39   7         0.0000002316
      1   3  41  31         0.0000002195
      3   1  31  41         0.0000002195
      1   5  19   5         0.0000002195
      5   1   5  19         0.0000002195
      4   7  42  27         0.0000002182
      7   4  27  42         0.0000002182
      0   5   8   8         0.0000002147
      5   0   8   8         0.0000002147
      0   1  25  33        -0.0000002140
      1   0  33  25        -0.0000002140
      3   7  34  22         0.0000002114
      7   3  22  34         0.0000002114
      2   4  42   4         0.0000002104
      4   2   4  42         0.0000002104
      0   4  43  20         0.0000001964
      4   0  20  43         0.0000001964
      2   3  43  18         0.0000001892
      3   2  18  43         0.0000001892
      0   7  24  42        -0.0000001843
      7   0  42  24        -0.0000001843
      4   5  42   0         0.0000001819
      5   4   0  42         0.0000001819
      0   6  30  17         0.0000001796
      6   0  17  30         0.0000001796
      0   3  37  27         0.0000001644
      3   0  27  37         0.0000001644
      0   6  34   8         0.0000001398
      6   0   8  34         0.0000001398
      0   4  25  42         0.0000001348
      4   0  42  25         0.0000001348
      0   7  43   6        -0.0000001347
      7   0   6  43        -0.0000001347
      1   7  24  43        -0.0000001333
      7   1  43  24        -0.0000001333
      2   2  31  43        -0.0000001311
      2   2  43  31        -0.0000001311
      0   7  43  15         0.0000001283
      7   0  15  43         0.0000001283
      0   4  11   4        -0.0000001212
      4   0   4  11        -0.0000001212
      2   7  24  42        -0.0000001142
      7   2  42  24        -0.0000001142
      0   0   4  25         0.0000001031
      0   0  25   4         0.0000001031
      0   0  16  35         0.0000000710
      0   0  35  16         0.0000000710
      1   2  18  13         0.0000000607
      2   1  13  18         0.0000000607
      4   5   6  42        -0.0000000541
      5   4  42   6        -0.0000000541
      0   7  28  35        -0.0000000513
      7   0  35  28        -0.0000000513
      0   5  19  43        -0.0000000511
      5   0  43  19        -0.0000000511
      1   4   1  10         0.0000000507
      4   1  10   1         0.0000000507
      0   1  30  16         0.0000000405
      1   0  16  30         0.0000000405
      4   4  21  30         0.0000000381
      4   4  30  21         0.0000000381
      0   6  42  29         0.0000000345
      6   0  29  42         0.0000000345
      0   2   8  39        -0.0000000334
      2   0  39   8        -0.0000000334
      2   6  42  29        -0.0000000308
      6   2  29  42        -0.0000000308
      0   7  19  10        -0.0000000291
      7   0  10  19        -0.0000000291
      5   7  40  39         0.0000000233
      7   5  39  40         0.0000000233
      1   6  32   5         0.0000000233
      6   1   5  32         0.0000000233
      1   1  18  37        -0.0000000186
      1   1  37  18        -0.0000000186
      0   7  32   3        -0.0000000147
      7   0   3  32        -0.0000000147
      2   2  16  36        -0.0000000127
      2   2  36  16        -0.0000000127

    SCF energy       (wfn)                    =  -77.985833533125771
    Reference energy (file100)                =  -77.985833533125799

    Opposite-spin MP2 correlation energy      =   -0.247355576071866
    Same-spin MP2 correlation energy          =   -0.061007792758258
    MP2 correlation energy                    =   -0.308363368830124
      * MP2 total energy                      =  -78.294196901955928

    Opposite-spin CCSD correlation energy     =   -0.287007335836867
    Same-spin CCSD correlation energy         =   -0.054926533672658
    CCSD correlation energy                   =   -0.341933869509524
      * CCSD total energy                     =  -78.327767402635317


*** tstop() called on Berts-MacBook-Pro.local at Wed Dec  6 22:01:37 2017
Module time:
	user time   =     148.31 seconds =       2.47 minutes
	system time =       3.32 seconds =       0.06 minutes
	total time  =        152 seconds =       2.53 minutes
Total time:
	user time   =     204.70 seconds =       3.41 minutes
	system time =       4.37 seconds =       0.07 minutes
	total time  =        209 seconds =       3.48 minutes

*** Psi4 exiting successfully. Buy a developer a beer!
