
    -----------------------------------------------------------------------
          Psi4: An Open-Source Ab Initio Electronic Structure Package
                               Psi4 1.1 release

                         Git: Rev {HEAD} add49b9 


    R. M. Parrish, L. A. Burns, D. G. A. Smith, A. C. Simmonett,
    A. E. DePrince III, E. G. Hohenstein, U. Bozkaya, A. Yu. Sokolov,
    R. Di Remigio, R. M. Richard, J. F. Gonthier, A. M. James,
    H. R. McAlexander, A. Kumar, M. Saitow, X. Wang, B. P. Pritchard,
    P. Verma, H. F. Schaefer III, K. Patkowski, R. A. King, E. F. Valeev,
    F. A. Evangelista, J. M. Turney, T. D. Crawford, and C. D. Sherrill,
    J. Chem. Theory Comput. in press (2017).
    (doi: 10.1021/acs.jctc.7b00174)

    -----------------------------------------------------------------------


    Psi4 started on: Wednesday, 06 December 2017 09:15PM

    Process ID:  11891
    PSIDATADIR: /anaconda3/share/psi4
    Memory:     500.0 MiB
    Threads:    1
    
  ==> Input File <==

--------------------------------------------------------------------------
"""This is a template for psi4 input format."""
import numpy
import sys

from openfermion.config import *
from openfermion.ops._interaction_tensor import (one_body_basis_change,
                                              two_body_basis_change)
from openfermion.hamiltonians import MolecularData
from numpy import array

sys.path.append('/Users/wadejong/Desktop/Quantum-Computing/OpenFermion/OpenFermion-Psi4/openfermionpsi4')
from _psi4_conversion_functions import *

# Set number of threads in PSI4
set_num_threads(8)

# Set memory that job can use in megabytes.
memory 8000 mb

# Initialize molecular data.
_description = 'ethylene_0.00000'
if _description == 'None':
    _description = None
molecule = MolecularData([['C', array([ 0.      ,  0.      ,  0.673055])], ['C', array([ 0.      ,  0.      , -0.673055])], ['H', array([ 0.      ,  0.934981,  1.246807])], ['H', array([ 0.      , -0.934981,  1.246807])], ['H', array([ 0.      , -0.934981, -1.246807])], ['H', array([ 0.      ,  0.934981, -1.246807])]],
                         'DZP',
                         1,
                         0,
                         _description,
                          filename='/Users/wadejong/Desktop/QCQCSiddiqi/8_Qubit_Simulation/data/H4-C2_DZP_singlet_ethylene_0.00000')

# Set molecular geometry and symmetry.
molecule mol {
C 0.0 0.0 0.673055
C 0.0 0.0 -0.673055
H 0.0 0.934981 1.246807
H 0.0 -0.934981 1.246807
H 0.0 -0.934981 -1.246807
H 0.0 0.934981 -1.246807
symmetry c1
}
mol.set_multiplicity(1)
mol.set_molecular_charge(0)

# Set reference and guess.
if molecule.multiplicity == 1:
    set reference rhf
    set guess sad
    set sad_frac_occ true
else:
    set reference rohf
    set guess sad
    set sad_frac_occ true

# Set global parameters of calculation.
set globals {
    basis DZP
    freeze_core false
    fail_on_maxiter true
    df_scf_guess false
    guess sad
    sad_frac_occ true
    opdm false
    tpdm false
    soscf true
    scf_type pk
    diis true
    maxiter 1e6
    num_amps_print 1e6
    r_convergence 1e-7
    d_convergence 1e-7
    e_convergence 1e-7
    ints_tolerance EQUALITY_TOLERANCE
    damping_percentage 0
}

# Run self-consistent field (SCF) calculation.
if True:
    try:

        hf_energy, hf_wavefunction = energy('scf', return_wfn=True)
        scf_wfn = hf_wavefunction
        if True:
            print('Hartree-Fock energy for {} ({} electrons) is {}.'.format(
                molecule.name, molecule.n_electrons, hf_energy))
    except:
        if True:
            print('WARNING: SCF calculation failed.')
        else:
            raise
    else:
        # Get orbitals and Fock matrix.
        molecule.hf_energy = hf_energy
        molecule.nuclear_repulsion = mol.nuclear_repulsion_energy()
        molecule.canonical_orbitals = numpy.asarray(hf_wavefunction.Ca())
        molecule.n_orbitals = molecule.canonical_orbitals.shape[0]
        molecule.n_qubits = 2 * molecule.n_orbitals
        molecule.orbital_energies = numpy.asarray(hf_wavefunction.epsilon_a())
        molecule.fock_matrix = numpy.asarray(hf_wavefunction.Fa())

        # Get integrals using MintsHelper.
        mints = MintsHelper(hf_wavefunction.basisset())
        molecule.one_body_integrals = one_body_basis_change(
            numpy.asarray(mints.ao_kinetic()), molecule.canonical_orbitals)
        molecule.one_body_integrals += one_body_basis_change(
            numpy.asarray(mints.ao_potential()), molecule.canonical_orbitals)
        two_body_integrals = numpy.asarray(mints.ao_eri())
        two_body_integrals.reshape((molecule.n_orbitals, molecule.n_orbitals,
                                    molecule.n_orbitals, molecule.n_orbitals))
        two_body_integrals = numpy.einsum('psqr', two_body_integrals)
        two_body_integrals = two_body_basis_change(
            two_body_integrals, molecule.canonical_orbitals)
        molecule.two_body_integrals = two_body_integrals
        molecule.save()


# Perform MP2 energy calculation if there are at least two electrons.
if True:
    try:
        assert molecule.n_electrons > 1
        mp2_energy = energy('mp2',ref_wfn=scf_wfn)
        if True:
            print('MP2 energy for {} ({} electrons) is {}.'.format(
                molecule.name, molecule.n_electrons, mp2_energy))
    except:
        if True:
            print('WARNING: MP2 calculation failed.')
        else:
            raise
    else:
        molecule.mp2_energy = mp2_energy
        molecule.save()


# Perform configuration interaction singles and doubles (CISD) calculation.
if True:
    set qc_module detci
    try:
        cisd_energy, cisd_wavefunction = energy('cisd', ref_wfn=scf_wfn, return_wfn=True)
        if True:
            print('CISD energy for {} ({} electrons) is {}.'.format(
                molecule.name, molecule.n_electrons, cisd_energy))
    except:
        if True:
            print('WARNING: CISD calculation failed.')
        else:
            raise
    else:
        # For the functions below, "a" and "b" refer to "up and "down" spins.
        molecule.cisd_energy = cisd_energy

        # Get 1-RDM from CISD calculation.
        """cisd_one_rdm_a = numpy.array(cisd_wavefunction.get_opdm(
            0, 0, 'A', True)).reshape(molecule.n_orbitals, molecule.n_orbitals)
        cisd_one_rdm_b = numpy.array(cisd_wavefunction.get_opdm(
            0, 0, 'B', True)).reshape(molecule.n_orbitals, molecule.n_orbitals)

        # Get 2-RDM from CISD calculation.
        cisd_two_rdm_aa = numpy.array(cisd_wavefunction.get_tpdm(
            'AA', False)).reshape(molecule.n_orbitals, molecule.n_orbitals,
                                  molecule.n_orbitals, molecule.n_orbitals)
        cisd_two_rdm_ab = numpy.array(cisd_wavefunction.get_tpdm(
            'AB', False)).reshape(molecule.n_orbitals, molecule.n_orbitals,
                                  molecule.n_orbitals, molecule.n_orbitals)
        cisd_two_rdm_bb = numpy.array(cisd_wavefunction.get_tpdm(
            'BB', False)).reshape(molecule.n_orbitals, molecule.n_orbitals,
                                  molecule.n_orbitals, molecule.n_orbitals)

        # Get overall RDMs.
        cisd_one_rdm, cisd_two_rdm = unpack_spatial_rdm(
            cisd_one_rdm_a, cisd_one_rdm_b, cisd_two_rdm_aa,
            cisd_two_rdm_ab, cisd_two_rdm_bb)

        # Store 1-RDM in molecule file, 2-RDM separately in other file.
        molecule.cisd_one_rdm = cisd_one_rdm
        molecule.cisd_two_rdm = cisd_two_rdm
        molecule.save()"""


# Perform exact diagonalization.
if False:
    set qc_module detci
    try:
        fci_energy, fci_wavefunction = energy('fci', ref_wfn=scf_wfn, return_wfn=True)
        if True:
            print('FCI energy for {} ({} electrons) is {}.'.format(
                molecule.name, molecule.n_electrons, fci_energy))
    except:
        if True:
            print('WARNING: FCI calculation failed.')
        else:
            raise
    else:
        # For the functions below, "a" and "b" refer to "up and "down" spins.
        molecule.fci_energy = fci_energy

        # Get 1-RDM from FCI calculation.
        """fci_one_rdm_a = numpy.array(fci_wavefunction.get_opdm(
            0, 0, 'A', True)).reshape(molecule.n_orbitals, molecule.n_orbitals)
        fci_one_rdm_b = numpy.array(fci_wavefunction.get_opdm(
            0, 0, 'B', True)).reshape(molecule.n_orbitals, molecule.n_orbitals)

        # Get 2-RDM from FCI calculation.
        fci_two_rdm_aa = numpy.array(fci_wavefunction.get_tpdm(
            'AA', False)).reshape(molecule.n_orbitals, molecule.n_orbitals,
                                  molecule.n_orbitals, molecule.n_orbitals)
        fci_two_rdm_ab = numpy.array(fci_wavefunction.get_tpdm(
            'AB', False)).reshape(molecule.n_orbitals, molecule.n_orbitals,
                                  molecule.n_orbitals, molecule.n_orbitals)
        fci_two_rdm_bb = numpy.array(fci_wavefunction.get_tpdm(
            'BB', False)).reshape(molecule.n_orbitals, molecule.n_orbitals,
                                  molecule.n_orbitals, molecule.n_orbitals)

        # Get overall RDMs.
        fci_one_rdm, fci_two_rdm = unpack_spatial_rdm(
            fci_one_rdm_a, fci_one_rdm_b,
            fci_two_rdm_aa, fci_two_rdm_ab, fci_two_rdm_bb)

        # Store 1-RDM in molecule file, 2-RDM separately in other file.
        molecule.fci_one_rdm = fci_one_rdm
        molecule.fci_two_rdm = fci_two_rdm
        molecule.save()"""


# Perform coupled cluster singles and doubles (CCSD) calculation.
if True:
    set qc_module ccenergy
    try:
        ccsd_energy = energy('ccsd',ref_wfn=scf_wfn)
        if True:
            print('CCSD energy for {} ({} electrons) is {}.'.format(
                molecule.name, molecule.n_electrons, ccsd_energy))
    except:
        if True:
            print('WARNING: CCSD calculation failed.')
        else:
            raise
    else:
        molecule.ccsd_energy = ccsd_energy

        # Merge CC amplitudes into molecule by parsing
        psi_filename = outfile_name()
        ccsd_amplitudes = parse_psi4_ccsd_amplitudes(
            2 * molecule.n_orbitals,
            molecule.get_n_alpha_electrons(),
            molecule.get_n_beta_electrons(),
            psi_filename)
        molecule.ccsd_amplitudes = ccsd_amplitudes
        molecule.save()
--------------------------------------------------------------------------
  Python driver attempted to set threads to 8.
  Psi4 was compiled without OpenMP, setting threads to 1.

  Memory set to   7.451 GiB by Python driver.

*** tstart() called on Berts-MacBook-Pro.local
*** at Wed Dec  6 21:15:28 2017

   => Loading Basis Set <=

    Name: DZP
    Role: ORBITAL
    Keyword: BASIS
    atoms 1-2 entry C          line    73 file /anaconda3/share/psi4/basis/dzp.gbs 
    atoms 3-6 entry H          line    16 file /anaconda3/share/psi4/basis/dzp.gbs 


         ---------------------------------------------------------
                                   SCF
            by Justin Turney, Rob Parrish, and Andy Simmonett
                              RHF Reference
                        1 Threads,   7629 MiB Core
         ---------------------------------------------------------

  ==> Geometry <==

    Molecular point group: c1
    Full point group: D2h

    Geometry (in Angstrom), charge = 0, multiplicity = 1:

       Center              X                  Y                   Z               Mass       
    ------------   -----------------  -----------------  -----------------  -----------------
           C          0.000000000000     0.000000000000     0.673055000000    12.000000000000
           C          0.000000000000     0.000000000000    -0.673055000000    12.000000000000
           H          0.000000000000     0.934981000000     1.246807000000     1.007825032070
           H          0.000000000000    -0.934981000000     1.246807000000     1.007825032070
           H          0.000000000000    -0.934981000000    -1.246807000000     1.007825032070
           H          0.000000000000     0.934981000000    -1.246807000000     1.007825032070

  Running in c1 symmetry.

  Rotational constants: A =      4.78350  B =      0.98359  C =      0.81584 [cm^-1]
  Rotational constants: A = 143405.72603  B =  29487.35098  C =  24458.20879 [MHz]
  Nuclear repulsion =   33.006924724767146

  Charge       = 0
  Multiplicity = 1
  Electrons    = 16
  Nalpha       = 8
  Nbeta        = 8

  ==> Algorithm <==

  SCF Algorithm Type is PK.
  DIIS enabled.
  MOM disabled.
  Fractional occupation disabled.
  Guess Type is SAD.
  Energy threshold   = 1.00e-07
  Density threshold  = 1.00e-07
  Integral threshold = 0.00e+00

  ==> Primary Basis <==

  Basis Set: DZP
    Blend: DZP
    Number of shells: 26
    Number of basis function: 52
    Number of Cartesian functions: 52
    Spherical Harmonics?: false
    Max angular momentum: 2

  ==> Pre-Iterations <==

   -------------------------------------------------------
    Irrep   Nso     Nmo     Nalpha   Nbeta   Ndocc  Nsocc
   -------------------------------------------------------
     A         52      52       0       0       0       0
   -------------------------------------------------------
    Total      52      52       8       8       8       0
   -------------------------------------------------------

  ==> Integral Setup <==

  Using in-core PK algorithm.
   Calculation information:
      Number of atoms:                   6
      Number of AO shells:              26
      Number of primitives:             50
      Number of atomic orbitals:        52
      Number of basis functions:        52

      Integral cutoff                 1.00e-12
      Number of threads:                 1

  Performing in-core PK
  Using 1900262 doubles for integral storage.
  We computed 61760 shell quartets total.
  Whereas there are 61776 unique shell quartets.
  ==> DiskJK: Disk-Based J/K Matrices <==

    J tasked:                  Yes
    K tasked:                  Yes
    wK tasked:                  No
    Memory (MB):              5722
    Schwarz Cutoff:          1E-12

    OpenMP threads:              1
  Minimum eigenvalue in the overlap matrix is 4.1342522134E-03.
  Using Symmetric Orthogonalization.

  SCF Guess: Superposition of Atomic Densities via on-the-fly atomic UHF.

  ==> Iterations <==

                        Total Energy        Delta E     RMS |[F,P]|

   @RHF iter   0:   -69.16286790188278   -6.91629e+01   1.01511e-01 
   @RHF iter   1:   -74.36351653542444   -5.20065e+00   3.98575e-02 
   @RHF iter   2:   -77.23751795246901   -2.87400e+00   2.36422e-02 DIIS/DAMP
   @RHF iter   3:   -78.03812233018755   -8.00604e-01   2.31769e-03 DIIS/DAMP
   @RHF iter   4:   -78.04845904960010   -1.03367e-02   3.83777e-04 SOSCF, nmicro = 4/DAMP
   @RHF iter   5:   -78.04891683930126   -4.57790e-04   1.81730e-06 SOSCF, nmicro = 4/DAMP
   @RHF iter   6:   -78.04891684583166   -6.53040e-09   1.28242e-09 SOSCF, conv/DAMP

  ==> Post-Iterations <==

    Orbital Energies (a.u.)
    -----------------------

    Doubly Occupied:                                                      

       1A    -11.244803     2A    -11.243243     3A     -1.026846  
       4A     -0.787814     5A     -0.635921     6A     -0.581961  
       7A     -0.503456     8A     -0.371836  

    Virtual:                                                              

       9A      0.147191    10A      0.257606    11A      0.286709  
      12A      0.357463    13A      0.396609    14A      0.413055  
      15A      0.443859    16A      0.473416    17A      0.486926  
      18A      0.612268    19A      0.664157    20A      0.678156  
      21A      0.825691    22A      1.030103    23A      1.193793  
      24A      1.202261    25A      1.323886    26A      1.529440  
      27A      1.562379    28A      1.583116    29A      1.675581  
      30A      1.921379    31A      2.064725    32A      2.067863  
      33A      2.075017    34A      2.161576    35A      2.228316  
      36A      2.416761    37A      2.474403    38A      2.559326  
      39A      2.579067    40A      2.776698    41A      2.829121  
      42A      2.916419    43A      2.969348    44A      3.198729  
      45A      3.310681    46A      3.492292    47A      3.618409  
      48A      3.909020    49A      4.208769    50A      4.554053  
      51A     27.624492    52A     27.664032  

    Final Occupation by Irrep:
              A 
    DOCC [     8 ]

  Energy converged.

  @RHF Final Energy:   -78.04891684583166

   => Energetics <=

    Nuclear Repulsion Energy =             33.0069247247671456
    One-Electron Energy =                -169.3199215517161917
    Two-Electron Energy =                  58.2640799811173906
    DFT Exchange-Correlation Energy =       0.0000000000000000
    Empirical Dispersion Energy =           0.0000000000000000
    PCM Polarization Energy =               0.0000000000000000
    EFP Energy =                            0.0000000000000000
    Total Energy =                        -78.0489168458316556



Properties will be evaluated at   0.000000,   0.000000,   0.000000 Bohr

Properties computed using the SCF density matrix

  Nuclear Dipole Moment: (a.u.)
     X:     0.0000      Y:     0.0000      Z:     0.0000

  Electronic Dipole Moment: (a.u.)
     X:     0.0000      Y:     0.0000      Z:     0.0000

  Dipole Moment: (a.u.)
     X:     0.0000      Y:     0.0000      Z:     0.0000     Total:     0.0000

  Dipole Moment: (Debye)
     X:     0.0000      Y:     0.0000      Z:     0.0000     Total:     0.0000


*** tstop() called on Berts-MacBook-Pro.local at Wed Dec  6 21:15:29 2017
Module time:
	user time   =       0.42 seconds =       0.01 minutes
	system time =       0.03 seconds =       0.00 minutes
	total time  =          1 seconds =       0.02 minutes
Total time:
	user time   =       0.42 seconds =       0.01 minutes
	system time =       0.03 seconds =       0.00 minutes
	total time  =          1 seconds =       0.02 minutes

*** tstart() called on Berts-MacBook-Pro.local
*** at Wed Dec  6 21:15:33 2017


  //>>>>>>>>>>>>>>>>>>>>>>>>>>>>>>>>>>>//
  //               DFMP2               //
  //<<<<<<<<<<<<<<<<<<<<<<<<<<<<<<<<<<<//

   => Loading Basis Set <=

    Name: (DZP AUX)
    Role: RIFIT
    Keyword: DF_BASIS_MP2
    atoms 1-2 entry C          line   269 file /anaconda3/share/psi4/basis/def2-qzvpp-ri.gbs 
    atoms 3-6 entry H          line    23 file /anaconda3/share/psi4/basis/def2-qzvpp-ri.gbs 

	 --------------------------------------------------------
	                          DF-MP2                         
	      2nd-Order Density-Fitted Moller-Plesset Theory     
	              RMP2 Wavefunction,   1 Threads             
	                                                         
	        Rob Parrish, Justin Turney, Andy Simmonett,      
	           Ed Hohenstein, and C. David Sherrill          
	 --------------------------------------------------------

   => Auxiliary Basis Set <=

  Basis Set: (DZP AUX)
    Blend: DEF2-QZVPP-RI
    Number of shells: 130
    Number of basis function: 506
    Number of Cartesian functions: 666
    Spherical Harmonics?: true
    Max angular momentum: 5

	 --------------------------------------------------------
	                 NBF =    52, NAUX =   506
	 --------------------------------------------------------
	   CLASS    FOCC     OCC    AOCC    AVIR     VIR    FVIR
	   PAIRS       0       8       8      44      44       0
	 --------------------------------------------------------

	-----------------------------------------------------------
	 ==================> DF-MP2 Energies <==================== 
	-----------------------------------------------------------
	 Reference Energy          =     -78.0489168458316556 [Eh]
	 Singles Energy            =      -0.0000000000000000 [Eh]
	 Same-Spin Energy          =      -0.0602063711345762 [Eh]
	 Opposite-Spin Energy      =      -0.2434054922134340 [Eh]
	 Correlation Energy        =      -0.3036118633480103 [Eh]
	 Total Energy              =     -78.3525287091796656 [Eh]
	-----------------------------------------------------------
	 ================> DF-SCS-MP2 Energies <================== 
	-----------------------------------------------------------
	 SCS Same-Spin Scale       =       0.3333333333333333 [-]
	 SCS Opposite-Spin Scale   =       1.2000000000000000 [-]
	 SCS Same-Spin Energy      =      -0.0200687903781921 [Eh]
	 SCS Opposite-Spin Energy  =      -0.2920865906561209 [Eh]
	 SCS Correlation Energy    =      -0.3121553810343130 [Eh]
	 SCS Total Energy          =     -78.3610722268659714 [Eh]
	-----------------------------------------------------------


*** tstop() called on Berts-MacBook-Pro.local at Wed Dec  6 21:15:33 2017
Module time:
	user time   =       0.29 seconds =       0.00 minutes
	system time =       0.04 seconds =       0.00 minutes
	total time  =          0 seconds =       0.00 minutes
Total time:
	user time   =       4.75 seconds =       0.08 minutes
	system time =       0.23 seconds =       0.00 minutes
	total time  =          5 seconds =       0.08 minutes
 MINTS: Wrapper to libmints.
   by Justin Turney

   Calculation information:
      Number of threads:                 1
      Number of atoms:                   6
      Number of AO shells:              26
      Number of SO shells:              26
      Number of primitives:             50
      Number of atomic orbitals:        52
      Number of basis functions:        52

      Number of irreps:                  1
      Integral cutoff                 0.00e+00
      Number of functions per irrep: [  52 ]

 OEINTS: Overlap, kinetic, potential, dipole, and quadrupole integrals
         stored in file 35.

      Computing two-electron integrals...done
      Computed 479028 non-zero two-electron integrals.
        Stored in file 33.


         ---------------------------------------------------------
                          Configuration Interaction
                            (a 'D E T C I' module)

                 C. David Sherrill, Daniel G. A. Smith, and
                              Matt L. Leininger
         ---------------------------------------------------------


   ==> Parameters <==

    EX LEVEL       =        2      H0 BLOCKSIZE  =     1000
    VAL EX LEVEL   =        0      H0 GUESS SIZE =     1000
    H0COUPLINGSIZE =        0      H0 COUPLING   =       NO
    MAXITER        =       24      NUM PRINT     =       20
    NUM ROOTS      =        1      ICORE         =        1
    PRINT LVL      =        1      FCI           =       NO
    R CONV         = 1.00e-07      MIXED         =      YES
    E CONV         = 1.00e-07      MIXED4        =      YES
    R4S            =       NO      REPL OTF      =       NO
    DIAG METHOD    =      SEM      FOLLOW ROOT   =        0
    PRECONDITIONER = DAVIDSON      UPDATE        = DAVIDSON
    S              =   0.0000      Ms0           =      YES
    GUESS VECTOR   =  H0BLOCK      OPENTYPE      =     NONE
    COLLAPSE SIZE  =        1      HD AVG        = EVANGELISTI
    MAX NUM VECS   =       25      REF SYM       =     AUTO
    IOPEN        =       NO

    EX ALLOW       =  1  1 
    STATE AVERAGE  =  0(1.00) 

   ==> CI Orbital and Space information <==

    RAS1 LVL      =        7      A RAS3 MAX    =        2
    RAS1 MIN      =       14      B RAS3 MAX    =        2
    A RAS1 LVL    =        7      RAS4 LVL      =       52
    A RAS1 MIN    =        6      A RAS4 MAX    =        0
    A RAS1 MAX    =        8      B RAS4 MAX    =        0
    B RAS1 LVL    =        7      RAS4 MAX      =        0
    B RAS1 MIN    =        6      A RAS34 MAX   =        2
    B RAS1 MAX    =        8      B RAS34 MAX   =        2
    RAS3 LVL      =        8      RAS34 MAX     =        2
    RAS3 MAX      =        2
   ------------------------------------
               Space    Total     A
   ------------------------------------
                 Nso       52    52
                 Nmo       52    52
               Ndocc        8     8
               Nsocc        0     0
   ------------------------------------
              CI Spaces
   ------------------------------------
        Dropped DOCC        0     0
                RAS1        8     8
                RAS2        0     0
                RAS3       44    44
                RAS4        0     0
      Active (total)       52    52
        Dropped UOCC        0     0
   ------------------------------------

   ==> Setting up CI strings <==

    There are 26841 alpha and 26841 beta strings
    The CI space requires 177585 (1.78E+05) determinants and 6 blocks

   ==> Transforming CI integrals <==

	Presorting SO-basis two-electron integrals.
	Sorting File: SO Ints (nn|nn) nbuckets = 1
	Transforming the one-electron integrals and constructing Fock matrices
	Starting first half-transformation.
	Sorting half-transformed integrals.
	First half integral transformation complete.
	Starting second half-transformation.
	Two-electron integral transformation complete.

   ==> Starting CI iterations <==

    H0 Block Eigenvalue = -78.08395957

    Simultaneous Expansion Method (Block Davidson Method)
    Using 1 initial trial vectors

     Iter   Root       Total Energy       Delta E      C RMS

   @CI  0:     0    -78.083959569520   -1.1109E+02   1.5415E+00  
   @CI  1:     0    -78.346223271966   -2.6226E-01   1.5148E-01  
   @CI  2:     0    -78.355461813070   -9.2385E-03   4.2627E-02  
   @CI  3:     0    -78.356038202608   -5.7639E-04   9.0165E-03  
   @CI  4:     0    -78.356067730025   -2.9527E-05   2.4342E-03  
   @CI  5:     0    -78.356069255271   -1.5252E-06   5.0640E-04  
   @CI  6:     0    -78.356069334766   -7.9495E-08   1.3007E-04  
   @CI  7:     0    -78.356069338995   -4.2290E-09   2.6773E-05  
   @CI  8:     0    -78.356069339204   -2.0947E-10   6.6583E-06  
   @CI  9:     0    -78.356069339217   -1.3046E-11   1.7102E-06  
   @CI 10:     0    -78.356069339218   -8.6686E-13   3.8809E-07  
    Warning: Norm of correction (root 0) is < 1.0E-13
   @CI 11:     0    -78.356069339218   -5.6843E-14   9.4879E-08 c

   ==> Energetics <==

    SCF energy =            0.000000000000000
    Total CI energy =     -78.356069339218351

   ==> CISD root 0 information <==

    CISD Root 0 energy =   -78.356069339218351

   The 20 most important determinants:

    *   1    0.951563  (    0,    0)  1AX 2AX 3AX 4AX 5AX 6AX 7AX 8AX 
    *   2   -0.093057  (    1,    1)  1AX 2AX 3AX 4AX 5AX 6AX 7AX 9AX 
    *   3   -0.043252  (    1,   73)  1AX 2AX 3AX 4AX 5AX 6AX 7AX 9AA 18AB 
    *   4   -0.043252  (   73,    1)  1AX 2AX 3AX 4AX 5AX 6AX 7AX 9AB 18AA 
    *   5   -0.028699  (   73,   73)  1AX 2AX 3AX 4AX 5AX 6AX 7AX 18AX 
    *   6   -0.026990  (   99,   99)  1AX 2AX 3AX 4AX 5AX 7AX 8AX 21AX 
    *   7   -0.025838  (    1,   99)  1AX 2AX 3AX 4AX 5AX 6AA 7AX 8AB 9AA 21AB 
    *   8   -0.025838  (   99,    1)  1AX 2AX 3AX 4AX 5AX 6AB 7AX 8AA 9AB 21AA 
    *   9   -0.023776  (   65,   65)  1AX 2AX 3AX 4AX 5AX 6AX 7AX 17AX 
    *  10   -0.023089  (    0, 2202)  1AX 2AX 3AX 4AX 5AX 6AA 7AX 8AA 9AB 21AB 
    *  11   -0.023089  ( 2202,    0)  1AX 2AX 3AX 4AX 5AX 6AB 7AX 8AB 9AA 21AA 
    *  12   -0.023072  (   26,   26)  1AX 2AX 3AX 4AX 5AX 6AX 8AX 12AX 
    *  13   -0.021259  (   28,   28)  1AX 2AX 3AX 4AX 6AX 7AX 8AX 12AX 
    *  14   -0.019714  (   73,   99)  1AX 2AX 3AX 4AX 5AX 6AA 7AX 8AB 18AA 21AB 
    *  15   -0.019714  (   99,   73)  1AX 2AX 3AX 4AX 5AX 6AB 7AX 8AA 18AB 21AA 
    *  16    0.019065  (    0,   65)  1AX 2AX 3AX 4AX 5AX 6AX 7AX 8AA 17AB 
    *  17    0.019065  (   65,    0)  1AX 2AX 3AX 4AX 5AX 6AX 7AX 8AB 17AA 
    *  18   -0.018114  (    5,    5)  1AX 2AX 3AX 5AX 6AX 7AX 8AX 9AX 
    *  19   -0.017968  (   43,   43)  1AX 2AX 3AX 4AX 5AX 7AX 8AX 14AX 
    *  20   -0.017114  (   34,   34)  1AX 2AX 3AX 4AX 5AX 6AX 8AX 13AX 

		 "A good bug is a dead bug" 

			 - Starship Troopers

		 "I didn't write FORTRAN.  That's the problem."

			 - Edward Valeev
 MINTS: Wrapper to libmints.
   by Justin Turney

   Calculation information:
      Number of threads:                 1
      Number of atoms:                   6
      Number of AO shells:              26
      Number of SO shells:              26
      Number of primitives:             50
      Number of atomic orbitals:        52
      Number of basis functions:        52

      Number of irreps:                  1
      Integral cutoff                 0.00e+00
      Number of functions per irrep: [  52 ]

 OEINTS: Overlap, kinetic, potential, dipole, and quadrupole integrals
         stored in file 35.

      Computing two-electron integrals...done
      Computed 479028 non-zero two-electron integrals.
        Stored in file 33.


*** tstart() called on Berts-MacBook-Pro.local
*** at Wed Dec  6 21:16:22 2017


	Wfn Parameters:
	--------------------
	Wavefunction         = CCSD
	Number of irreps     = 1
	Number of MOs        = 52
	Number of active MOs = 52
	AO-Basis             = NONE
	Semicanonical        = false
	Reference            = RHF
	Print Level          = 1

	IRREP	# MOs	# FZDC	# DOCC	# SOCC	# VIRT	# FZVR
	-----	-----	------	------	------	------	------
	 A	   52	    0	    8	    0	    44	    0
	Transforming integrals...
	IWL integrals will be deleted.
	(OO|OO)...
	Presorting SO-basis two-electron integrals.
	Sorting File: SO Ints (nn|nn) nbuckets = 1
	Transforming the one-electron integrals and constructing Fock matrices
	Starting first half-transformation.
	Sorting half-transformed integrals.
	First half integral transformation complete.
	Starting second half-transformation.
	Two-electron integral transformation complete.
	(OO|OV)...
	Starting second half-transformation.
	Two-electron integral transformation complete.
	(OO|VV)...
	Starting second half-transformation.
	Two-electron integral transformation complete.
	(OV|OO)...
	Starting first half-transformation.
	Sorting half-transformed integrals.
	First half integral transformation complete.
	Starting second half-transformation.
	Two-electron integral transformation complete.
	(OV|OV)...
	Starting second half-transformation.
	Two-electron integral transformation complete.
	(OV|VV)...
	Starting second half-transformation.
	Two-electron integral transformation complete.
	(VV|OO)...
	Starting first half-transformation.
	Sorting half-transformed integrals.
	First half integral transformation complete.
	Starting second half-transformation.
	Two-electron integral transformation complete.
	(VV|OV)...
	Starting second half-transformation.
	Two-electron integral transformation complete.
	(VV|VV)...
	Starting second half-transformation.
	Two-electron integral transformation complete.
	Frozen core energy     =      0.00000000000000

	Size of irrep 0 of <ab|cd> integrals:      3.748 (MW) /     29.985 (MB)
	Total:                                     3.748 (MW) /     29.985 (MB)

	Size of irrep 0 of <ia|bc> integrals:      0.681 (MW) /      5.452 (MB)
	Total:                                     0.681 (MW) /      5.452 (MB)

	Size of irrep 0 of tijab amplitudes:       0.124 (MW) /      0.991 (MB)
	Total:                                     0.124 (MW) /      0.991 (MB)

	Nuclear Rep. energy          =     33.00692472476715
	SCF energy                   =    -78.04891684583166
	One-electron energy          =   -169.31992158593340
	Two-electron energy          =     58.26408001533476
	Reference energy             =    -78.04891684583149

*** tstop() called on Berts-MacBook-Pro.local at Wed Dec  6 21:16:22 2017
Module time:
	user time   =       0.25 seconds =       0.00 minutes
	system time =       0.28 seconds =       0.00 minutes
	total time  =          0 seconds =       0.00 minutes
Total time:
	user time   =      52.87 seconds =       0.88 minutes
	system time =       1.04 seconds =       0.02 minutes
	total time  =         54 seconds =       0.90 minutes

*** tstart() called on Berts-MacBook-Pro.local
*** at Wed Dec  6 21:16:22 2017

            **************************
            *                        *
            *        CCENERGY        *
            *                        *
            **************************

    Nuclear Rep. energy (wfn)     =   33.006924724767146
    SCF energy          (wfn)     =  -78.048916845831656
    Reference energy    (file100) =  -78.048916845831485

    Input parameters:
    -----------------
    Wave function   =     CCSD
    Reference wfn   =     RHF
    Brueckner       =     No
    Memory (Mbytes) =     8000.0
    Maxiter         =   1000000
    R_Convergence   =     1.0e-07
    E_Convergence   =     1.0e-07
    Restart         =     Yes
    DIIS            =     Yes
    AO Basis        =     NONE
    ABCD            =     NEW
    Cache Level     =     2
    Cache Type      =     LOW
    Print Level     =     1
    Num. of threads =     1
    # Amps to Print =     1000000
    Print MP2 Amps? =     No
    Analyze T2 Amps =     No
    Print Pair Ener =     No
    Local CC        =     No
    SCS-MP2         =     False
    SCSN-MP2        =     False
    SCS-CCSD        =     False

MP2 correlation energy -0.3036193775804596
                Solving CC Amplitude Equations
                ------------------------------
  Iter             Energy              RMS        T1Diag      D1Diag    New D1Diag    D2Diag
  ----     ---------------------    ---------   ----------  ----------  ----------   --------
     0        -0.303619377580460    0.000e+00    0.000000    0.000000    0.000000    0.156522
     1        -0.323536389631011    5.255e-02    0.006572    0.023064    0.023064    0.171679
     2        -0.333250463472530    2.136e-02    0.008047    0.029056    0.029056    0.188674
     3        -0.334395704083772    7.119e-03    0.009059    0.033125    0.033125    0.195326
     4        -0.334448215959960    2.270e-03    0.009198    0.033847    0.033847    0.197977
     5        -0.334466611011660    4.357e-04    0.009207    0.033905    0.033905    0.198343
     6        -0.334466750261128    9.920e-05    0.009205    0.033902    0.033902    0.198369
     7        -0.334466696626695    1.873e-05    0.009205    0.033900    0.033900    0.198375
     8        -0.334466682247980    4.225e-06    0.009204    0.033899    0.033899    0.198375
     9        -0.334466616860399    1.122e-06    0.009204    0.033899    0.033899    0.198375
    10        -0.334466640302745    3.180e-07    0.009204    0.033899    0.033899    0.198375
    11        -0.334466645730593    7.766e-08    0.009204    0.033899    0.033899    0.198375

    Iterations converged.


    Largest TIA Amplitudes:
              7   8         0.0317566682
              7  18         0.0112293007
              4   3         0.0059653609
              5  21         0.0047478572
              3  13         0.0044568770
              7  28         0.0038132348
              6  34         0.0035275685
              5   5         0.0034389106
              4  24        -0.0031575307
              4  14         0.0030393845
              2  23         0.0030098412
              2   2        -0.0028175998
              2  40         0.0026578095
              3  25         0.0025451768
              3  30        -0.0024751655
              6  11        -0.0022352105
              5  33        -0.0020651109
              3  41         0.0018406197
              4  37         0.0018403866
              6  22        -0.0017737069
              4  27        -0.0015566815
              2  10         0.0015271258
              3  35         0.0015112122
              2  21         0.0014961391
              2   5         0.0014759383
              5   2        -0.0014601192
              5  36        -0.0013795748
              6   7         0.0013461067
              5  15        -0.0012742488
              3  38         0.0012556763
              2  36         0.0011564547
              3   4         0.0009854934
              3  12         0.0008801738
              3  16         0.0008052690
              3   1        -0.0007646194
              2  15         0.0007244204
              5  10        -0.0006904092
              2  33        -0.0006349756
              5  23         0.0006265191
              4   6         0.0005680275
              1  13        -0.0005472155
              6  19        -0.0005427820
              5  40         0.0005167056
              6  39         0.0004748600
              0  40        -0.0004621562
              1  41        -0.0003653243
              0  10        -0.0003391081
              1   1        -0.0003282604
              0  15        -0.0002899323
              1  12        -0.0002762165
              0   2        -0.0002381975
              1  35        -0.0002203308
              1   4        -0.0001889293
              1  38        -0.0001789519
              0  36        -0.0001537975
              0   5        -0.0001354455
              1  25        -0.0001312476
              2  42         0.0001231330
              1  43         0.0000975377
              0  42         0.0000968616
              0  21        -0.0000958069
              3  43         0.0000907824
              1  30        -0.0000893834
              1  16        -0.0000858760
              0  23        -0.0000478853
              0  33        -0.0000352666
              5  42         0.0000189277

    Largest TIjAb Amplitudes:
      7   7   0   0        -0.1299581749
      7   7   0   9        -0.0569936601
      7   7   9   0        -0.0569936601
      7   7   9   9        -0.0343228624
      5   5  12  12        -0.0310113028
      5   7  12   0        -0.0299190994
      7   5   0  12        -0.0299190994
      6   6   3   3        -0.0290966424
      7   7   8   8        -0.0274446289
      4   4   3   3        -0.0257333082
      5   7  12   9        -0.0227929264
      7   5   9  12        -0.0227929264
      5   5   5   5        -0.0215347884
      3   3   0   0        -0.0212519643
      6   6   4   4        -0.0209757721
      4   6   3  11        -0.0194919515
      6   4  11   3        -0.0194919515
      7   7  10  10        -0.0189953042
      5   7   5   8         0.0181870859
      7   5   8   5         0.0181870859
      3   7   2   0        -0.0181667136
      7   3   0   2        -0.0181667136
      5   5   3   3        -0.0179403440
      4   6   2   4        -0.0176373240
      6   4   4   2        -0.0176373240
      2   7  12   0        -0.0174764599
      7   2   0  12        -0.0174764599
      6   6   7   7        -0.0173519818
      4   4   2   2        -0.0168311403
      6   7   7   8        -0.0166154412
      7   6   8   7        -0.0166154412
      2   7   1   0        -0.0162066367
      7   2   0   1        -0.0162066367
      6   7   6   0        -0.0160233000
      7   6   0   6        -0.0160233000
      4   7   6   8        -0.0159893325
      7   4   8   6        -0.0159893325
      4   4   6   6        -0.0159869244
      4   5   3   5         0.0159449263
      5   4   5   3         0.0159449263
      5   6   3   4         0.0158343874
      6   5   4   3         0.0158343874
      6   6  11  11        -0.0154507970
      4   6   6   7        -0.0154133310
      6   4   7   6        -0.0154133310
      3   7   0   2        -0.0151454684
      7   3   2   0        -0.0151454684
      2   2  12  12        -0.0149295716
      2   7   0  12        -0.0148615536
      7   2  12   0        -0.0148615536
      4   6  11   3        -0.0143798157
      6   4   3  11        -0.0143798157
      6   6   2   2        -0.0142879743
      5   6   5   7         0.0142415916
      6   5   7   5         0.0142415916
      6   7   6   9        -0.0141778700
      7   6   9   6        -0.0141778700
      4   6   3   7        -0.0140998284
      6   4   7   3        -0.0140998284
      5   5  18  18        -0.0140298413
      2   7  12   9        -0.0138913481
      7   2   9  12        -0.0138913481
      2   7   1   9        -0.0138813445
      7   2   9   1        -0.0138813445
      4   7   7   9        -0.0138175106
      7   4   9   7        -0.0138175106
      5   6  12   6        -0.0137735068
      6   5   6  12        -0.0137735068
      4   7   3   8        -0.0137683500
      7   4   8   3        -0.0137683500
      3   5   1   5         0.0136054143
      5   3   5   1         0.0136054143
      3   5   0  18         0.0135549283
      5   3  18   0         0.0135549283
      4   7   7   0        -0.0135016842
      7   4   0   7        -0.0135016842
      3   7   1   8        -0.0133071811
      7   3   8   1        -0.0133071811
      2   7  13   9        -0.0132612404
      7   2   9  13        -0.0132612404
      5   6   5  11         0.0132330625
      6   5  11   5         0.0132330625
      6   6  15  15        -0.0129111475
      6   6   7  11        -0.0126381606
      6   6  11   7        -0.0126381606
      4   5   7  12        -0.0125907860
      5   4  12   7        -0.0125907860
      3   5   2  12        -0.0124907779
      5   3  12   2        -0.0124907779
      4   6   4   2        -0.0124032312
      6   4   2   4        -0.0124032312
      3   3  12  12        -0.0123802662
      4   6   3  19        -0.0123401886
      6   4  19   3        -0.0123401886
      3   6   1   7        -0.0122291360
      6   3   7   1        -0.0122291360
      3   7   2   9        -0.0121358311
      7   3   9   2        -0.0121358311
      4   5   2   3         0.0120946779
      5   4   3   2         0.0120946779
      4   4   7   7        -0.0120762979
      3   4   0  17         0.0120467389
      4   3  17   0         0.0120467389
      3   7   0  10         0.0120329087
      7   3  10   0         0.0120329087
      3   6   0  20         0.0120178908
      6   3  20   0         0.0120178908
      6   6   6   6        -0.0119934493
      3   4   1   3        -0.0119920864
      4   3   3   1        -0.0119920864
      4   5   6   5         0.0119860466
      5   4   5   6         0.0119860466
      3   3   2   2        -0.0119735853
      6   6  16  16        -0.0119666492
      7   7  12  12        -0.0119385337
      2   5  13  12        -0.0118952059
      5   2  12  13        -0.0118952059
      4   6   7   6        -0.0118036410
      6   4   6   7        -0.0118036410
      2   7   0   1        -0.0117731568
      7   2   1   0        -0.0117731568
      2   7   0   4        -0.0117673321
      7   2   4   0        -0.0117673321
      6   7  11   8        -0.0116338811
      7   6   8  11        -0.0116338811
      2   7  10   8        -0.0115793743
      7   2   8  10        -0.0115793743
      2   7  13   0        -0.0115021425
      7   2   0  13        -0.0115021425
      3   3   1   1        -0.0114712571
      4   4   3  14        -0.0114573393
      4   4  14   3        -0.0114573393
      3   6   1  11        -0.0114345220
      6   3  11   1        -0.0114345220
      3   7   5   9        -0.0113338908
      7   3   9   5        -0.0113338908
      4   4  11  11        -0.0113248764
      6   6  14  14        -0.0113090700
      6   6   3  14        -0.0113080024
      6   6  14   3        -0.0113080024
      7   7  18  18        -0.0112837729
      4   6  15   4        -0.0112736783
      6   4   4  15        -0.0112736783
      3   7  13   8        -0.0112071863
      7   3   8  13        -0.0112071863
      3   7   0   5        -0.0111511581
      7   3   5   0        -0.0111511581
      5   5   2   2        -0.0110411074
      3   3   4   4        -0.0109175806
      5   5  14  14        -0.0109041862
      4   4   4   4        -0.0108645668
      4   7  11   9        -0.0108628833
      7   4   9  11        -0.0108628833
      5   5   3  14        -0.0108198714
      5   5  14   3        -0.0108198714
      3   7   0  23        -0.0107906703
      7   3  23   0        -0.0107906703
      4   4  17  17        -0.0107814500
      3   7   5   0        -0.0107316220
      7   3   0   5        -0.0107316220
      4   6  19   3        -0.0107285805
      6   4   3  19        -0.0107285805
      6   6  20  20        -0.0107237545
      3   3  15  15        -0.0105732207
      4   6  15  16        -0.0105071919
      6   4  16  15        -0.0105071919
      4   6  17  20        -0.0104896583
      6   4  20  17        -0.0104896583
      3   5   4   2         0.0104768513
      5   3   2   4         0.0104768513
      4   7  11   0        -0.0104645865
      7   4   0  11        -0.0104645865
      6   6   4  16        -0.0103799294
      6   6  16   4        -0.0103799294
      4   4  14  14        -0.0102669252
      2   2   3   3        -0.0102479623
      4   6   4  15        -0.0101973523
      6   4  15   4        -0.0101973523
      2   7   4   0        -0.0101591925
      7   2   0   4        -0.0101591925
      3   5   2   4         0.0101463725
      5   3   4   2         0.0101463725
      4   6  16  15        -0.0100775630
      6   4  15  16        -0.0100775630
      5   6   3  16         0.0100469987
      6   5  16   3         0.0100469987
      3   3   5   5        -0.0100207975
      4   5  15   3         0.0099383195
      5   4   3  15         0.0099383195
      6   6  19  19        -0.0098777148
      4   4  15  15        -0.0098235169
      3   5  13   5         0.0098132077
      5   3   5  13         0.0098132077
      2   5   1  12        -0.0097827318
      5   2  12   1        -0.0097827318
      7   7  17  17        -0.0097359032
      2   2   0   0        -0.0096318674
      4   6   6  11        -0.0095820268
      6   4  11   6        -0.0095820268
      4   6  14  19        -0.0095447883
      6   4  19  14        -0.0095447883
      4   5  17  18        -0.0095433861
      5   4  18  17        -0.0095433861
      3   4  13   3        -0.0095299632
      4   3   3  13        -0.0095299632
      3   5  10  12        -0.0095276260
      5   3  12  10        -0.0095276260
      4   4   7  11        -0.0095242909
      4   4  11   7        -0.0095242909
      2   7   9  12        -0.0095025233
      7   2  12   9        -0.0095025233
      6   6   2  15        -0.0095000735
      6   6  15   2        -0.0095000735
      2   5  10   5         0.0094910775
      5   2   5  10         0.0094910775
      2   5  12  12        -0.0094724968
      5   2  12  12        -0.0094724968
      3   6   3   2        -0.0094192502
      6   3   2   3        -0.0094192502
      3   4   1   6        -0.0093057020
      4   3   6   1        -0.0093057020
      5   6  14  16         0.0092908262
      6   5  16  14         0.0092908262
      5   5   4   4        -0.0092474177
      3   7   0  15        -0.0091846218
      7   3  15   0        -0.0091846218
      3   3   0   9        -0.0091211472
      3   3   9   0        -0.0091211472
      5   5   0   0        -0.0091090226
      3   5  12   2        -0.0091047545
      5   3   2  12        -0.0091047545
      6   6  17  17        -0.0090980624
      3   3   2  15        -0.0090602340
      3   3  15   2        -0.0090602340
      3   6   3  15        -0.0090358505
      6   3  15   3        -0.0090358505
      6   7   0   3        -0.0090062802
      7   6   3   0        -0.0090062802
      3   5   5  12        -0.0089363494
      5   3  12   5        -0.0089363494
      4   4   3   6        -0.0089074185
      4   4   6   3        -0.0089074185
      2   4  10   6        -0.0088999449
      4   2   6  10        -0.0088999449
      4   6  20  17        -0.0088460491
      6   4  17  20        -0.0088460491
      3   3   3   3        -0.0088399795
      5   6   1   3         0.0087267705
      6   5   3   1         0.0087267705
      3   6  13  11        -0.0086440586
      6   3  11  13        -0.0086440586
      2   2  13  13        -0.0086169881
      3   6  13   7        -0.0085904876
      6   3   7  13        -0.0085904876
      2   7   9   1        -0.0085889288
      7   2   1   9        -0.0085889288
      5   7   4   0         0.0085860910
      7   5   0   4         0.0085860910
      4   4  16  16        -0.0085703938
      5   7  13   0        -0.0085224342
      7   5   0  13        -0.0085224342
      5   6  18  20        -0.0085215146
      6   5  20  18        -0.0085215146
      3   4   3   4        -0.0085110002
      4   3   4   3        -0.0085110002
      2   6   0  17         0.0084993353
      6   2  17   0         0.0084993353
      5   7   0   4         0.0084637433
      7   5   4   0         0.0084637433
      5   7   3  17         0.0084190732
      7   5  17   3         0.0084190732
      4   4   2  15        -0.0084145954
      4   4  15   2        -0.0084145954
      4   4  20  20        -0.0083845675
      2   7   2   8        -0.0083429386
      7   2   8   2        -0.0083429386
      2   2  18  18        -0.0083265269
      3   6   5   3        -0.0083234285
      6   3   3   5        -0.0083234285
      2   2  12  13        -0.0083070970
      2   2  13  12        -0.0083070970
      2   7   0  16        -0.0082937604
      7   2  16   0        -0.0082937604
      3   5   4  15         0.0082759914
      5   3  15   4         0.0082759914
      6   6   0   0        -0.0082376150
      3   5  15   4         0.0082304846
      5   3   4  15         0.0082304846
      3   6  14  15        -0.0082233452
      6   3  15  14        -0.0082233452
      4   7   3  18         0.0081986978
      7   4  18   3         0.0081986978
      2   2   0   9        -0.0081630369
      2   2   9   0        -0.0081630369
      2   2  10  10        -0.0081495117
      3   7   9   2        -0.0081345720
      7   3   2   9        -0.0081345720
      4   6  19  14        -0.0081082396
      6   4  14  19        -0.0081082396
      6   6   1   1        -0.0080407559
      2   6  10   7        -0.0080169317
      6   2   7  10        -0.0080169317
      5   5   4  12         0.0080121359
      5   5  12   4         0.0080121359
      2   4   0  20         0.0079959864
      4   2  20   0         0.0079959864
      2   2   9   9        -0.0079307656
      4   6   7   3        -0.0078855854
      6   4   3   7        -0.0078855854
      4   5  15  14         0.0078464095
      5   4  14  15         0.0078464095
      4   4  19  19        -0.0078416870
      2   4  13   7        -0.0078351384
      4   2   7  13        -0.0078351384
      4   4  21  21        -0.0077969419
      3   6  15   3        -0.0077922908
      6   3   3  15        -0.0077922908
      3   6   4  11        -0.0077862076
      6   3  11   4        -0.0077862076
      4   6  11   6        -0.0077612346
      6   4   6  11        -0.0077612346
      5   5   1   1        -0.0077081666
      3   7  15   0        -0.0077035498
      7   3   0  15        -0.0077035498
      3   4   5   7        -0.0077014244
      4   3   7   5        -0.0077014244
      3   4  13   6        -0.0076742995
      4   3   6  13        -0.0076742995
      3   4   5  11        -0.0076139823
      4   3  11   5        -0.0076139823
      5   6  14   4         0.0076138394
      6   5   4  14         0.0076138394
      3   3  16  16        -0.0076073770
      3   3   1  13        -0.0076037478
      3   3  13   1        -0.0076037478
      5   5  15  15        -0.0075990604
      3   5  18   0         0.0075525460
      5   3   0  18         0.0075525460
      5   7  14  17         0.0075499854
      7   5  17  14         0.0075499854
      3   6   2  24        -0.0075356585
      6   3  24   2        -0.0075356585
      2   2   3  14        -0.0075321992
      2   2  14   3        -0.0075321992
      6   6  11  19        -0.0075303805
      6   6  19  11        -0.0075303805
      2   6   3  12        -0.0075164482
      6   2  12   3        -0.0075164482
      3   5   5   1         0.0074921460
      5   3   1   5         0.0074921460
      4   5   3  21         0.0074920714
      5   4  21   3         0.0074920714
      5   6   4   3         0.0074780279
      6   5   3   4         0.0074780279
      3   6   2   6        -0.0074667118
      6   3   6   2        -0.0074667118
      3   5   4   5         0.0074584737
      5   3   5   4         0.0074584737
      3   3  13  13        -0.0074369731
      2   4  13  11        -0.0073796789
      4   2  11  13        -0.0073796789
      7   7  23  23        -0.0073704725
      4   5  11  12        -0.0073679216
      5   4  12  11        -0.0073679216
      7   7   5  10         0.0073616891
      7   7  10   5         0.0073616891
      3   7  12  18         0.0073503972
      7   3  18  12         0.0073503972
      7   7   1  12        -0.0073207511
      7   7  12   1        -0.0073207511
      2   4   1   7        -0.0073105527
      4   2   7   1        -0.0073105527
      3   7  10   9        -0.0072546884
      7   3   9  10        -0.0072546884
      3   3  18  18        -0.0072464445
      6   6  22  22        -0.0072313675
      5   6  19  15         0.0071903255
      6   5  15  19         0.0071903255
      2   2  14  14        -0.0071863171
      2   3   2   4        -0.0071701417
      3   2   4   2        -0.0071701417
      4   7   0  11        -0.0071624309
      7   4  11   0        -0.0071624309
      3   6   5   6        -0.0071572575
      6   3   6   5        -0.0071572575
      2   4   2   6        -0.0071571201
      4   2   6   2        -0.0071571201
      5   5   2  15        -0.0071553897
      5   5  15   2        -0.0071553897
      3   5  15  16         0.0071120096
      5   3  16  15         0.0071120096
      2   6   3   1        -0.0071043912
      6   2   1   3        -0.0071043912
      2   6  13   6        -0.0070960782
      6   2   6  13        -0.0070960782
      3   7   4   8        -0.0070125680
      7   3   8   4        -0.0070125680
      3   4   4   3        -0.0070072957
      4   3   3   4        -0.0070072957
      4   6   2  16        -0.0069958911
      6   4  16   2        -0.0069958911
      3   6  20   0         0.0069926107
      6   3   0  20         0.0069926107
      6   6  21  21        -0.0069551130
      3   5  16  15         0.0069527877
      5   3  15  16         0.0069527877
      5   5  10  10        -0.0069370189
      7   7   1   1        -0.0069216703
      3   3   2   5        -0.0068664337
      3   3   5   2        -0.0068664337
      3   7  15   9        -0.0068621359
      7   3   9  15        -0.0068621359
      3   6   4   7        -0.0068353704
      6   3   7   4        -0.0068353704
      2   7   4   9        -0.0068203593
      7   2   9   4        -0.0068203593
      2   4   1  11        -0.0067996571
      4   2  11   1        -0.0067996571
      2   4  12  11        -0.0067917584
      4   2  11  12        -0.0067917584
      3   6  10   6        -0.0067853357
      6   3   6  10        -0.0067853357
      3   3  20  20        -0.0067773268
      3   4   4   6        -0.0067727253
      4   3   6   4        -0.0067727253
      2   6   1   6        -0.0067671718
      6   2   6   1        -0.0067671718
      3   3   4  16        -0.0067512184
      3   3  16   4        -0.0067512184
      3   6  21   3        -0.0067359309
      6   3   3  21        -0.0067359309
      2   5  12  13        -0.0067020783
      5   2  13  12        -0.0067020783
      2   4   3  21        -0.0066946357
      4   2  21   3        -0.0066946357
      5   7  18  23         0.0066925704
      7   5  23  18         0.0066925704
      2   5   2   5         0.0066621442
      5   2   5   2         0.0066621442
      2   7   9  13        -0.0066448246
      7   2  13   9        -0.0066448246
      3   4  14  16        -0.0066361849
      4   3  16  14        -0.0066361849
      3   5   9  18         0.0066181975
      5   3  18   9         0.0066181975
      2   6  13   3        -0.0065765321
      6   2   3  13        -0.0065765321
      3   4   2   7        -0.0065689997
      4   3   7   2        -0.0065689997
      7   7   0  26        -0.0065611120
      7   7  26   0        -0.0065611120
      2   5   8  18         0.0065603452
      5   2  18   8         0.0065603452
      4   4   4  16        -0.0065594772
      4   4  16   4        -0.0065594772
      3   6   3   5        -0.0065499286
      6   3   5   3        -0.0065499286
      3   6  11   1        -0.0065300037
      6   3   1  11        -0.0065300037
      3   3   9   9        -0.0065082617
      6   6  24  24        -0.0065057125
      2   3   0  18        -0.0064918693
      3   2  18   0        -0.0064918693
      3   6  11   4        -0.0064715398
      6   3   4  11        -0.0064715398
      4   4  11  19        -0.0064661365
      4   4  19  11        -0.0064661365
      3   5  15  12        -0.0064346741
      5   3  12  15        -0.0064346741
      3   6  19  16        -0.0064339669
      6   3  16  19        -0.0064339669
      2   7   3  17         0.0063857970
      7   2  17   3         0.0063857970
      3   3  14  14        -0.0063771686
      5   6  12  24        -0.0063736090
      6   5  24  12        -0.0063736090
      6   6   4  13        -0.0063727948
      6   6  13   4        -0.0063727948
      3   4  10   7        -0.0063570975
      4   3   7  10        -0.0063570975
      4   6  14  11        -0.0063339436
      6   4  11  14        -0.0063339436
      4   5  16  19         0.0063272009
      5   4  19  16         0.0063272009
      6   6  10  15         0.0063036554
      6   6  15  10         0.0063036554
      5   7  18   2         0.0062988010
      7   5   2  18         0.0062988010
      2   2   1  12        -0.0062896285
      2   2  12   1        -0.0062896285
      3   6  18  17         0.0062871532
      6   3  17  18         0.0062871532
      5   6   2   7         0.0062866083
      6   5   7   2         0.0062866083
      2   2   1  13        -0.0062857248
      2   2  13   1        -0.0062857248
      3   6   4  22        -0.0062764428
      6   3  22   4        -0.0062764428
      5   6  11   2         0.0062757070
      6   5   2  11         0.0062757070
      2   7   9   4        -0.0062716952
      7   2   4   9        -0.0062716952
      3   7   9   5        -0.0062444496
      7   3   5   9        -0.0062444496
      3   6   7   1        -0.0062439020
      6   3   1   7        -0.0062439020
      4   7  14  18         0.0062210902
      7   4  18  14         0.0062210902
      3   3  17  17        -0.0062058220
      3   3  10  10        -0.0062005403
      3   4  17   0         0.0061917519
      4   3   0  17         0.0061917519
      2   6   3  13        -0.0061896294
      6   2  13   3        -0.0061896294
      3   7   9  23        -0.0061789004
      7   3  23   9        -0.0061789004
      4   5  14  10        -0.0061762087
      5   4  10  14        -0.0061762087
      4   6  16  10         0.0061693169
      6   4  10  16         0.0061693169
      4   5   4  11         0.0061571516
      5   4  11   4         0.0061571516
      6   7  24   0        -0.0061374379
      7   6   0  24        -0.0061374379
      2   6   2   7        -0.0061311743
      6   2   7   2        -0.0061311743
      2   5   2   2         0.0061293199
      5   2   2   2         0.0061293199
      4   5   6   2         0.0061262602
      5   4   2   6         0.0061262602
      2   2  17  17        -0.0061156599
      4   6  21  25         0.0060721027
      6   4  25  21         0.0060721027
      2   5  12  25        -0.0060695079
      5   2  25  12        -0.0060695079
      5   6  25   3        -0.0060490813
      6   5   3  25        -0.0060490813
      6   7   3   9        -0.0060235320
      7   6   9   3        -0.0060235320
      5   5   5  21        -0.0060168207
      5   5  21   5        -0.0060168207
      2   6  17   0         0.0059969197
      6   2   0  17         0.0059969197
      2   5   3  27         0.0059962492
      5   2  27   3         0.0059962492
      3   3  11  11        -0.0059526260
      5   7   9  12        -0.0059518280
      7   5  12   9        -0.0059518280
      2   3   8   0        -0.0059261662
      3   2   0   8        -0.0059261662
      2   5  12  30        -0.0059227857
      5   2  30  12        -0.0059227857
      3   4   4  24        -0.0059073246
      4   3  24   4        -0.0059073246
      3   4  18  20         0.0058966247
      4   3  20  18         0.0058966247
      3   6  15  14        -0.0058937275
      6   3  14  15        -0.0058937275
      2   2   1   1        -0.0058789542
      3   4  12   3        -0.0058622239
      4   3   3  12        -0.0058622239
      2   3   1   5        -0.0058460642
      3   2   5   1        -0.0058460642
      2   2   8   8        -0.0058266146
      5   6  16   3         0.0058255418
      6   5   3  16         0.0058255418
      2   4  12  19        -0.0058251655
      4   2  19  12        -0.0058251655
      5   6   2  22         0.0058139477
      6   5  22   2         0.0058139477
      3   6  12  22         0.0058125060
      6   3  22  12         0.0058125060
      2   3   8   9        -0.0058103455
      3   2   9   8        -0.0058103455
      3   4  19  15        -0.0057998852
      4   3  15  19        -0.0057998852
      5   7  21  18        -0.0057900155
      7   5  18  21        -0.0057900155
      2   3  17  20        -0.0057719746
      3   2  20  17        -0.0057719746
      2   5   0  26        -0.0057712729
      5   2  26   0        -0.0057712729
      3   4   2  22        -0.0057677587
      4   3  22   2        -0.0057677587
      4   6  10  16         0.0057659563
      6   4  16  10         0.0057659563
      2   3   4   2        -0.0057654447
      3   2   2   4        -0.0057654447
      5   6   4  24         0.0057501976
      6   5  24   4         0.0057501976
      7   7   8  18         0.0057445752
      7   7  18   8         0.0057445752
      3   5  12  23         0.0057345543
      5   3  23  12         0.0057345543
      7   7   2   2        -0.0057291373
      3   3   7   7        -0.0057112462
      5   5  21  21        -0.0057043713
      3   5   3  11         0.0057031624
      5   3  11   3         0.0057031624
      6   7  14   0         0.0056922764
      7   6   0  14         0.0056922764
      7   7   5   5        -0.0056882850
      4   6  16   2        -0.0056815581
      6   4   2  16        -0.0056815581
      2   3   3  11        -0.0056686153
      3   2  11   3        -0.0056686153
      3   4   2  11        -0.0056673641
      4   3  11   2        -0.0056673641
      3   4   3  13        -0.0056595083
      4   3  13   3        -0.0056595083
      5   7   2  18         0.0056543430
      7   5  18   2         0.0056543430
      2   3  15   4        -0.0056515182
      3   2   4  15        -0.0056515182
      4   6  24  22        -0.0056459650
      6   4  22  24        -0.0056459650
      2   6  12   3        -0.0056455196
      6   2   3  12        -0.0056455196
      3   6  16  19        -0.0056365053
      6   3  19  16        -0.0056365053
      2   7  12  26        -0.0056225318
      7   2  26  12        -0.0056225318
      2   5   4   4         0.0056164357
      5   2   4   4         0.0056164357
      3   3   4  12         0.0056092605
      3   3  12   4         0.0056092605
      3   7   9  15        -0.0056082817
      7   3  15   9        -0.0056082817
      2   5   0   0         0.0056029888
      5   2   0   0         0.0056029888
      4   5  24   2         0.0056023879
      5   4   2  24         0.0056023879
      3   4  12  14        -0.0056014886
      4   3  14  12        -0.0056014886
      5   7   4   9         0.0055972879
      7   5   9   4         0.0055972879
      6   6  25  25        -0.0055969142
      5   6  16  14         0.0055835679
      6   5  14  16         0.0055835679
      2   5   5  10         0.0055815449
      5   2  10   5         0.0055815449
      2   5   3  14        -0.0055666356
      5   2  14   3        -0.0055666356
      6   6  10  10        -0.0055639974
      4   7  17  10        -0.0055626851
      7   4  10  17        -0.0055626851
      3   5   2  16         0.0055515023
      5   3  16   2         0.0055515023
      2   7   0  30         0.0055467687
      7   2  30   0         0.0055467687
      3   6  15  24        -0.0055429177
      6   3  24  15        -0.0055429177
      3   3  19  19        -0.0055424284
      4   4   1   1        -0.0055201691
      3   6  10  14         0.0055028981
      6   3  14  10         0.0055028981
      2   4  12   7        -0.0054916441
      4   2   7  12        -0.0054916441
      3   6   3  21        -0.0054876669
      6   3  21   3        -0.0054876669
      6   7   9   3        -0.0054851449
      7   6   3   9        -0.0054851449
      5   5   4  16        -0.0054765668
      5   5  16   4        -0.0054765668
      5   6  26  17         0.0054750752
      6   5  17  26         0.0054750752
      2   7   0  13        -0.0054735210
      7   2  13   0        -0.0054735210
      4   7  17  23         0.0054698920
      7   4  23  17         0.0054698920
      3   6  19   4        -0.0054686426
      6   3   4  19        -0.0054686426
      4   5   2  14         0.0054614785
      5   4  14   2         0.0054614785
      3   3   1   4        -0.0054222092
      3   3   4   1        -0.0054222092
      4   6  21   1        -0.0054111126
      6   4   1  21        -0.0054111126
      6   6   5   5        -0.0054071175
      5   7  25   9        -0.0054064645
      7   5   9  25        -0.0054064645
      4   4  10  10        -0.0054024128
      2   6   1   3        -0.0053915172
      6   2   3   1        -0.0053915172
      3   6   2   3        -0.0053760766
      6   3   3   2        -0.0053760766
      4   6  22  24        -0.0053730626
      6   4  24  22        -0.0053730626
      3   5  12  10        -0.0053616452
      5   3  10  12        -0.0053616452
      7   7  13  13        -0.0053535907
      4   6   2  13        -0.0053477333
      6   4  13   2        -0.0053477333
      4   4  12  12        -0.0053358833
      3   4   9  17         0.0053313416
      4   3  17   9         0.0053313416
      4   4  24  24        -0.0053166624
      5   6  11  15         0.0053100061
      6   5  15  11         0.0053100061
      5   5  23  23        -0.0052971843
      4   6  25  21         0.0052957836
      6   4  21  25         0.0052957836
      3   3   0  26         0.0052926326
      3   3  26   0         0.0052926326
      5   5  16  16        -0.0052826216
      2   3   4  15        -0.0052815513
      3   2  15   4        -0.0052815513
      3   6  26  20        -0.0052791148
      6   3  20  26        -0.0052791148
      4   4   0   0        -0.0052781556
      5   7  18  10        -0.0052505358
      7   5  10  18        -0.0052505358
      6   7  17  12         0.0052255953
      7   6  12  17         0.0052255953
      5   6   0  17        -0.0052240280
      6   5  17   0        -0.0052240280
      4   4  22  22        -0.0052168033
      3   6  11  13        -0.0052159845
      6   3  13  11        -0.0052159845
      5   6   3  12        -0.0052133160
      6   5  12   3        -0.0052133160
      3   3   4  13        -0.0052120435
      3   3  13   4        -0.0052120435
      4   6   5   1        -0.0051900240
      6   4   1   5        -0.0051900240
      2   7  12  31        -0.0051894076
      7   2  31  12        -0.0051894076
      4   5   3  15         0.0051868602
      5   4  15   3         0.0051868602
      2   3  13   5        -0.0051801152
      3   2   5  13        -0.0051801152
      3   3   5  15        -0.0051721198
      3   3  15   5        -0.0051721198
      3   5  16   2         0.0051697158
      5   3   2  16         0.0051697158
      3   4   3   1        -0.0051646907
      4   3   1   3        -0.0051646907
      3   3   5  10        -0.0051575190
      3   3  10   5        -0.0051575190
      2   5  30  12        -0.0051491394
      5   2  12  30        -0.0051491394
      3   4  21  11        -0.0051487893
      4   3  11  21        -0.0051487893
      3   4   3  16        -0.0051487579
      4   3  16   3        -0.0051487579
      4   6   1  21        -0.0051269210
      6   4  21   1        -0.0051269210
      2   3  15  16        -0.0051224801
      3   2  16  15        -0.0051224801
      2   2  21  21        -0.0051197024
      3   5   5   4         0.0051166606
      5   3   4   5         0.0051166606
      2   2   5   5        -0.0051146989
      3   4  15  19        -0.0051060839
      4   3  19  15        -0.0051060839
      4   5  20  26         0.0051020327
      5   4  26  20         0.0051020327
      5   6  21  11         0.0050889681
      6   5  11  21         0.0050889681
      4   6   1   5        -0.0050776038
      6   4   5   1        -0.0050776038
      2   5  25  12        -0.0050732192
      5   2  12  25        -0.0050732192
      6   6  12  12        -0.0050700834
      3   3  22  22        -0.0050649490
      2   3  20  17        -0.0050606556
      3   2  17  20        -0.0050606556
      5   7   0  16         0.0050515873
      7   5  16   0         0.0050515873
      2   3  10  13        -0.0050490675
      3   2  13  10        -0.0050490675
      2   6   2  11        -0.0050420736
      6   2  11   2        -0.0050420736
      6   6  13  13        -0.0050351046
      3   4  11  21        -0.0050283354
      4   3  21  11        -0.0050283354
      3   3  24  24        -0.0050235678
      4   5  10  14        -0.0050221252
      5   4  14  10        -0.0050221252
      6   7   3   0         0.0050221233
      7   6   0   3         0.0050221233
      2   6   9  17         0.0050200440
      6   2  17   9         0.0050200440
      5   5  13  13        -0.0050189838
      4   7  20  12         0.0050164147
      7   4  12  20         0.0050164147
      4   7  21  17         0.0050138063
      7   4  17  21         0.0050138063
      5   7  21   8         0.0049986542
      7   5   8  21         0.0049986542
      3   6  14  10         0.0049954718
      6   3  10  14         0.0049954718
      2   7  25   0        -0.0049865207
      7   2   0  25        -0.0049865207
      2   6  14  12        -0.0049807145
      6   2  12  14        -0.0049807145
      3   5  12  15        -0.0049749766
      5   3  15  12        -0.0049749766
      5   6  15  19         0.0049490679
      6   5  19  15         0.0049490679
      3   4  14   4        -0.0049450730
      4   3   4  14        -0.0049450730
      2   4  20   0         0.0049433094
      4   2   0  20         0.0049433094
      3   6  12  19        -0.0049416396
      6   3  19  12        -0.0049416396
      3   5  14  19         0.0049307314
      5   3  19  14         0.0049307314
      5   6   2  11         0.0049284646
      6   5  11   2         0.0049284646
      3   4  12  24         0.0049133487
      4   3  24  12         0.0049133487
      3   3   6   6        -0.0049082099
      5   5   2   5        -0.0049063405
      5   5   5   2        -0.0049063405
      2   2   2   2        -0.0048993428
      2   7  15   8        -0.0048938828
      7   2   8  15        -0.0048938828
      6   6   2   5        -0.0048840802
      6   6   5   2        -0.0048840802
      3   3  21  21        -0.0048738630
      4   5  11   4         0.0048717699
      5   4   4  11         0.0048717699
      2   4  11   1        -0.0048655449
      4   2   1  11        -0.0048655449
      5   6  12  14         0.0048619802
      6   5  14  12         0.0048619802
      3   7  10   0        -0.0048589980
      7   3   0  10        -0.0048589980
      2   3   2   1        -0.0048568847
      3   2   1   2        -0.0048568847
      4   5  11  25        -0.0048520141
      5   4  25  11        -0.0048520141
      3   4  16  14        -0.0048499521
      4   3  14  16        -0.0048499521
      5   5  12  25        -0.0048400894
      5   5  25  12        -0.0048400894
      7   7   9  26        -0.0048374690
      7   7  26   9        -0.0048374690
      4   5   4  19         0.0048369586
      5   4  19   4         0.0048369586
      2   2   6   6        -0.0048240172
      7   7   2  23        -0.0048197209
      7   7  23   2        -0.0048197209
      3   4  11   5        -0.0048180129
      4   3   5  11        -0.0048180129
      7   7   4  12        -0.0048160167
      7   7  12   4        -0.0048160167
      2   2  23  23        -0.0047937736
      2   5  15  15         0.0047882303
      5   2  15  15         0.0047882303
      2   3  16  15        -0.0047872101
      3   2  15  16        -0.0047872101
      2   5  12  35        -0.0047859523
      5   2  35  12        -0.0047859523
      3   4  11   2        -0.0047738174
      4   3   2  11        -0.0047738174
      6   7  12  17         0.0047652385
      7   6  17  12         0.0047652385
      3   6   6  10        -0.0047620699
      6   3  10   6        -0.0047620699
      3   4  15  11        -0.0047593840
      4   3  11  15        -0.0047593840
      2   7   3  29         0.0047561201
      7   2  29   3         0.0047561201
      2   3   0   8        -0.0047521396
      3   2   8   0        -0.0047521396
      5   5  24  24        -0.0047513515
      2   4   9  20         0.0047477796
      4   2  20   9         0.0047477796
      4   4  13  13        -0.0047436148
      2   7   8  23        -0.0047301917
      7   2  23   8        -0.0047301917
      2   3  10   1        -0.0047126943
      3   2   1  10        -0.0047126943
      2   4   7   1        -0.0047069399
      4   2   1   7        -0.0047069399
      5   6  11   5         0.0046976432
      6   5   5  11         0.0046976432
      6   7  20  10        -0.0046944041
      7   6  10  20        -0.0046944041
      5   7  10  18         0.0046890997
      7   5  18  10         0.0046890997
      6   7  20  23         0.0046869731
      7   6  23  20         0.0046869731
      3   6  20  26        -0.0046847163
      6   3  26  20        -0.0046847163
      3   7   8   1        -0.0046843707
      7   3   1   8        -0.0046843707
      2   3   9   8        -0.0046824402
      3   2   8   9        -0.0046824402
      6   7   4  17        -0.0046669963
      7   6  17   4        -0.0046669963
      2   4   6  10        -0.0046650438
      4   2  10   6        -0.0046650438
      4   5  20   0        -0.0046643652
      5   4   0  20        -0.0046643652
      3   4  25   3         0.0046559582
      4   3   3  25         0.0046559582
      2   5  13  25        -0.0046532178
      5   2  25  13        -0.0046532178
      5   6  10  19        -0.0046485803
      6   5  19  10        -0.0046485803
      1   1  42  42        -0.0046476180
      2   6  11  21        -0.0046471889
      6   2  21  11        -0.0046471889
      0   0  42  42        -0.0046441821
      3   6   9  20         0.0046430293
      6   3  20   9         0.0046430293
      0   1  42  43        -0.0046409544
      1   0  43  42        -0.0046409544
      0   1  43  42        -0.0046408874
      1   0  42  43        -0.0046408874
      1   1  43  43        -0.0046383785
      2   3   2  13        -0.0046354218
      3   2  13   2        -0.0046354218
      0   0  43  43        -0.0046350283
      5   5   1  13        -0.0046338927
      5   5  13   1        -0.0046338927
      5   5  19  19        -0.0046313933
      2   3  13   2        -0.0046264047
      3   2   2  13        -0.0046264047
      2   5  18   8         0.0046170672
      5   2   8  18         0.0046170672
      7   7  10  23         0.0046147703
      7   7  23  10         0.0046147703
      3   3   3  14        -0.0046122468
      3   3  14   3        -0.0046122468
      2   6   2  22        -0.0046083534
      6   2  22   2        -0.0046083534
      2   5   4  12        -0.0046070529
      5   2  12   4        -0.0046070529
      5   7  25   0        -0.0046003054
      7   5   0  25        -0.0046003054
      4   5  22  12        -0.0045975064
      5   4  12  22        -0.0045975064
      3   7   8  13        -0.0045903839
      7   3  13   8        -0.0045903839
      5   6  15  11         0.0045867577
      6   5  11  15         0.0045867577
      2   4  11  13        -0.0045836045
      4   2  13  11        -0.0045836045
      5   6  19  10        -0.0045701650
      6   5  10  19        -0.0045701650
      5   7   1   0        -0.0045684193
      7   5   0   1        -0.0045684193
      3   4   6   1        -0.0045469998
      4   3   1   6        -0.0045469998
      2   3   6   7        -0.0045377915
      3   2   7   6        -0.0045377915
      4   6  13   2        -0.0045334745
      6   4   2  13        -0.0045334745
      6   6   3   6        -0.0045260644
      6   6   6   3        -0.0045260644
      5   6  13   3         0.0045227538
      6   5   3  13         0.0045227538
      2   5   6  14        -0.0045217147
      5   2  14   6        -0.0045217147
      4   5  19  16         0.0045204314
      5   4  16  19         0.0045204314
      6   6   1   4        -0.0045194496
      6   6   4   1        -0.0045194496
      6   6   3  27        -0.0045003526
      6   6  27   3        -0.0045003526
      6   7   1  17         0.0044941070
      7   6  17   1         0.0044941070
      4   6  21  12        -0.0044814102
      6   4  12  21        -0.0044814102
      6   6   6  24        -0.0044765095
      6   6  24   6        -0.0044765095
      2   5   0  31        -0.0044654046
      5   2  31   0        -0.0044654046
      6   6   1  13        -0.0044600292
      6   6  13   1        -0.0044600292
      2   7   0  25        -0.0044496734
      7   2  25   0        -0.0044496734
      5   5   2  23         0.0044473488
      5   5  23   2         0.0044473488
      3   5   7  14        -0.0044422633
      5   3  14   7        -0.0044422633
      2   7   8   2        -0.0044376715
      7   2   2   8        -0.0044376715
      4   6   2  12         0.0044375500
      6   4  12   2         0.0044375500
      3   6  24   2        -0.0044268800
      6   3   2  24        -0.0044268800
      3   5  12  21         0.0044174304
      5   3  21  12         0.0044174304
      2   6   4   3        -0.0044077356
      6   2   3   4        -0.0044077356
      2   7   9  16        -0.0043985186
      7   2  16   9        -0.0043985186
      4   4  25  25        -0.0043941435
      7   7   3   3        -0.0043902566
      2   4  13  19        -0.0043890357
      4   2  19  13        -0.0043890357
      6   7  17   1         0.0043799389
      7   6   1  17         0.0043799389
      6   7  16  17        -0.0043790195
      7   6  17  16        -0.0043790195
      5   5  10  23         0.0043728270
      5   5  23  10         0.0043728270
      3   4  22   2        -0.0043651468
      4   3   2  22        -0.0043651468
      2   5  15   5         0.0043529841
      5   2   5  15         0.0043529841
      5   7  18  15         0.0043371024
      7   5  15  18         0.0043371024
      2   7   5  18        -0.0043349322
      7   2  18   5        -0.0043349322
      3   5   1   2         0.0043335764
      5   3   2   1         0.0043335764
      6   6   6  14         0.0043156821
      6   6  14   6         0.0043156821
      5   5  12  13        -0.0043148058
      5   5  13  12        -0.0043148058
      3   6  25  11         0.0043144028
      6   3  11  25         0.0043144028
      4   7   2  17        -0.0043130899
      7   4  17   2        -0.0043130899
      2   3   1   2        -0.0043129504
      3   2   2   1        -0.0043129504
      3   4   7   5        -0.0043091476
      4   3   5   7        -0.0043091476
      5   6   6  12        -0.0043087451
      6   5  12   6        -0.0043087451
      3   5  18  26        -0.0043049832
      5   3  26  18        -0.0043049832
      5   5  25  25        -0.0042978680
      3   6  13  19        -0.0042960208
      6   3  19  13        -0.0042960208
      2   3   3  19        -0.0042912380
      3   2  19   3        -0.0042912380
      5   6   4   6         0.0042853683
      6   5   6   4         0.0042853683
      2   4   7  13        -0.0042827176
      4   2  13   7        -0.0042827176
      4   7  17   5         0.0042818497
[...]
      5   5  43  16        -0.0000050855
      0   7   9  38         0.0000050624
      7   0  38   9         0.0000050624
      1   1   2  23        -0.0000050486
      1   1  23   2        -0.0000050486
      0   3  21   1        -0.0000050418
      3   0   1  21        -0.0000050418
      3   3  10  42         0.0000049623
      3   3  42  10         0.0000049623
      0   4  23  27        -0.0000049188
      4   0  27  23        -0.0000049188
      2   3  43  21        -0.0000048721
      3   2  21  43        -0.0000048721
      6   6  15  42        -0.0000048668
      6   6  42  15        -0.0000048668
      0   4  10   3        -0.0000048446
      4   0   3  10        -0.0000048446
      1   7  41  28        -0.0000048446
      7   1  28  41        -0.0000048446
      1   6  42  24         0.0000048440
      6   1  24  42         0.0000048440
      0   2  23   2        -0.0000047999
      2   0   2  23        -0.0000047999
      0   2  23  40        -0.0000047927
      2   0  40  23        -0.0000047927
      0   6   5   7        -0.0000046974
      6   0   7   5        -0.0000046974
      5   7   8  42         0.0000046901
      7   5  42   8         0.0000046901
      1   3   4  35         0.0000046739
      3   1  35   4         0.0000046739
      1   3  13  12         0.0000046593
      3   1  12  13         0.0000046593
      3   5   4  42        -0.0000046547
      5   3  42   4        -0.0000046547
      2   3  21  43        -0.0000046484
      3   2  43  21        -0.0000046484
      4   5  42  37        -0.0000046260
      5   4  37  42        -0.0000046260
      0   4  24  15        -0.0000046006
      4   0  15  24        -0.0000046006
      0   0  29  29        -0.0000045953
      0   4  27  36         0.0000045621
      4   0  36  27         0.0000045621
      4   4  25  43        -0.0000045608
      4   4  43  25        -0.0000045608
      0   2   5   2         0.0000045403
      2   0   2   5         0.0000045403
      3   7  42  31        -0.0000045313
      7   3  31  42        -0.0000045313
      0   3  14  39         0.0000045170
      3   0  39  14         0.0000045170
      0   4  20  26         0.0000044686
      4   0  26  20         0.0000044686
      1   4  22  15        -0.0000044626
      4   1  15  22        -0.0000044626
      4   5  42  27        -0.0000044597
      5   4  27  42        -0.0000044597
      0   5  10  10         0.0000044559
      5   0  10  10         0.0000044559
      1   3   1  30         0.0000044431
      3   1  30   1         0.0000044431
      0   7  42   8        -0.0000044054
      7   0   8  42        -0.0000044054
      1   7  42  31        -0.0000043983
      7   1  31  42        -0.0000043983
      3   3   1  43         0.0000043949
      3   3  43   1         0.0000043949
      1   7   0  10         0.0000043834
      7   1  10   0         0.0000043834
      0   5  30  38         0.0000043732
      5   0  38  30         0.0000043732
      0   2   5  15         0.0000043663
      2   0  15   5         0.0000043663
      0   4  36   6        -0.0000043534
      4   0   6  36        -0.0000043534
      1   1  29  29        -0.0000043504
      0   4   4   7        -0.0000043092
      4   0   7   4        -0.0000043092
      0   4  39  12         0.0000042760
      4   0  12  39         0.0000042760
      2   6  43  27         0.0000042571
      6   2  27  43         0.0000042571
      5   6   3  43         0.0000042386
      6   5  43   3         0.0000042386
      1   4  43  27        -0.0000041909
      4   1  27  43        -0.0000041909
      4   6  43  36         0.0000041536
      6   4  36  43         0.0000041536
      0   0  21  23        -0.0000041369
      0   0  23  21        -0.0000041369
      4   6   5  41         0.0000041287
      6   4  41   5         0.0000041287
      0   3  35  23        -0.0000040848
      3   0  23  35        -0.0000040848
      1   6  29  28        -0.0000040401
      6   1  28  29        -0.0000040401
      2   4  42   3        -0.0000040076
      4   2   3  42        -0.0000040076
      7   7  33  42        -0.0000040039
      7   7  42  33        -0.0000040039
      0   5  21   2        -0.0000039337
      5   0   2  21        -0.0000039337
      0   7  28  33        -0.0000039234
      7   0  33  28        -0.0000039234
      0   2   2  21        -0.0000038882
      2   0  21   2        -0.0000038882
      1   2  41   5         0.0000038712
      2   1   5  41         0.0000038712
      3   5  36  41        -0.0000038630
      5   3  41  36        -0.0000038630
      0   1  17  20        -0.0000038330
      1   0  20  17        -0.0000038330
      0   7  21  28         0.0000038263
      7   0  28  21         0.0000038263
      0   6  13  27         0.0000038225
      6   0  27  13         0.0000038225
      2   5  43  41        -0.0000038179
      5   2  41  43        -0.0000038179
      1   6  23   3         0.0000037819
      6   1   3  23         0.0000037819
      1   2  22  14         0.0000037249
      2   1  14  22         0.0000037249
      0   2  11  39        -0.0000036579
      2   0  39  11        -0.0000036579
      1   6  40  14        -0.0000036237
      6   1  14  40        -0.0000036237
      1   4  42  19        -0.0000035500
      4   1  19  42        -0.0000035500
      0   1  20  17        -0.0000035454
      1   0  17  20        -0.0000035454
      4   6  36  43         0.0000035241
      6   4  43  36         0.0000035241
      0   6  27  30         0.0000035187
      6   0  30  27         0.0000035187
      1   2  11  24         0.0000035112
      2   1  24  11         0.0000035112
      3   5  23  43         0.0000034940
      5   3  43  23         0.0000034940
      1   1  21  23        -0.0000034817
      1   1  23  21        -0.0000034817
      3   5  16  42         0.0000034749
      5   3  42  16         0.0000034749
      6   7  26  37         0.0000034488
      7   6  37  26         0.0000034488
      1   7  32  27        -0.0000034063
      7   1  27  32        -0.0000034063
      0   6  32  28        -0.0000033925
      6   0  28  32        -0.0000033925
      3   4  43   3         0.0000033746
      4   3   3  43         0.0000033746
      3   5  43  23        -0.0000033733
      5   3  23  43        -0.0000033733
      1   6  27  15        -0.0000033180
      6   1  15  27        -0.0000033180
      0   5  43  38         0.0000033164
      5   0  38  43         0.0000033164
      0   5   0   9         0.0000032434
      5   0   9   0         0.0000032434
      3   5  42   4        -0.0000032405
      5   3   4  42        -0.0000032405
      5   7  41  26         0.0000032022
      7   5  26  41         0.0000032022
      1   3   4  30         0.0000031987
      3   1  30   4         0.0000031987
      1   4   7   2        -0.0000031841
      4   1   2   7        -0.0000031841
      1   2  27  19        -0.0000031804
      2   1  19  27        -0.0000031804
      0   7  42  28        -0.0000030941
      7   0  28  42        -0.0000030941
      1   4   5  11         0.0000030925
      4   1  11   5         0.0000030925
      4   4  33  40         0.0000030923
      4   4  40  33         0.0000030923
      1   5  42  16        -0.0000030869
      5   1  16  42        -0.0000030869
      7   7  21  42         0.0000030722
      7   7  42  21         0.0000030722
      1   6  42  27         0.0000030604
      6   1  27  42         0.0000030604
      3   7  43  18         0.0000029543
      7   3  18  43         0.0000029543
      1   3  13  30         0.0000029429
      3   1  30  13         0.0000029429
      0   4  34  35         0.0000029229
      4   0  35  34         0.0000029229
      0   4  43  22        -0.0000028997
      4   0  22  43        -0.0000028997
      0   5  13   1         0.0000028988
      5   0   1  13         0.0000028988
      1   2  16  36        -0.0000028971
      2   1  36  16        -0.0000028971
      1   6  42   3        -0.0000028606
      6   1   3  42        -0.0000028606
      1   6  43  22        -0.0000028322
      6   1  22  43        -0.0000028322
      0   6  16   6         0.0000028167
      6   0   6  16         0.0000028167
      0   4  10  14        -0.0000028092
      4   0  14  10        -0.0000028092
      2   5  43   4         0.0000027883
      5   2   4  43         0.0000027883
      0   7  18  33         0.0000027805
      7   0  33  18         0.0000027805
      0   3  24  19        -0.0000027666
      3   0  19  24        -0.0000027666
      1   5  42  38         0.0000027440
      5   1  38  42         0.0000027440
      1   7  42   9         0.0000027323
      7   1   9  42         0.0000027323
      0   5  29  17         0.0000026845
      5   0  17  29         0.0000026845
      2   3  39   6         0.0000026435
      3   2   6  39         0.0000026435
      1   2  33  35        -0.0000025551
      2   1  35  33        -0.0000025551
      0   1   2  30        -0.0000024888
      1   0  30   2        -0.0000024888
      2   3  33  13         0.0000024756
      3   2  13  33         0.0000024756
      1   6  24  15        -0.0000023952
      6   1  15  24        -0.0000023952
      3   3  23  42         0.0000023786
      3   3  42  23         0.0000023786
      0   3  33  30        -0.0000023714
      3   0  30  33        -0.0000023714
      2   5  13  43         0.0000023612
      5   2  43  13         0.0000023612
      0   2  23  21        -0.0000023580
      2   0  21  23        -0.0000023580
      0   6  42  22         0.0000023462
      6   0  22  42         0.0000023462
      0   0   4  25         0.0000023384
      0   0  25   4         0.0000023384
      1   2  15   4        -0.0000023371
      2   1   4  15        -0.0000023371
      1   4  32  28         0.0000023289
      4   1  28  32         0.0000023289
      3   4  42  39        -0.0000023090
      4   3  39  42        -0.0000023090
      4   4   5  15         0.0000023062
      4   4  15   5         0.0000023062
      2   2  12  43         0.0000022897
      2   2  43  12         0.0000022897
      2   5  38  25        -0.0000022644
      5   2  25  38        -0.0000022644
      0   6  42  11        -0.0000022602
      6   0  11  42        -0.0000022602
      0   3  38  36         0.0000022454
      3   0  36  38         0.0000022454
      1   4  42   7         0.0000022271
      4   1   7  42         0.0000022271
      1   5  32  17        -0.0000022230
      5   1  17  32        -0.0000022230
      0   3  31   8         0.0000021560
      3   0   8  31         0.0000021560
      0   1  23   4        -0.0000021435
      1   0   4  23        -0.0000021435
      1   3  16  25         0.0000021257
      3   1  25  16         0.0000021257
      1   5  10   1         0.0000021165
      5   1   1  10         0.0000021165
      1   7   8  38        -0.0000021144
      7   1  38   8        -0.0000021144
      3   7  43  28        -0.0000021121
      7   3  28  43        -0.0000021121
      1   6  42   6         0.0000020705
      6   1   6  42         0.0000020705
      0   4  42  14        -0.0000020676
      4   0  14  42        -0.0000020676
      0   4  42  24         0.0000020655
      4   0  24  42         0.0000020655
      2   3  23  43         0.0000019644
      3   2  43  23         0.0000019644
      4   4  23  42         0.0000019610
      4   4  42  23         0.0000019610
      7   7   2  40        -0.0000019524
      7   7  40   2        -0.0000019524
      3   4  27  41         0.0000019042
      4   3  41  27         0.0000019042
      3   5  35  42        -0.0000018952
      5   3  42  35        -0.0000018952
      0   6  43  24        -0.0000018631
      6   0  24  43        -0.0000018631
      3   5  43  42         0.0000018598
      5   3  42  43         0.0000018598
      0   4  30  11         0.0000018548
      4   0  11  30         0.0000018548
      1   4  42  22         0.0000017543
      4   1  22  42         0.0000017543
      0   3  41  23         0.0000017305
      3   0  23  41         0.0000017305
      0   3  36   1        -0.0000017298
      3   0   1  36        -0.0000017298
      2   4   3  42         0.0000017251
      4   2  42   3         0.0000017251
      2   4  43  11         0.0000016970
      4   2  11  43         0.0000016970
      2   4  39  38        -0.0000016804
      4   2  38  39        -0.0000016804
      1   4  14   4        -0.0000016790
      4   1   4  14        -0.0000016790
      3   4  19  42         0.0000016117
      4   3  42  19         0.0000016117
      1   5  43  36         0.0000016107
      5   1  36  43         0.0000016107
      7   7  36  42         0.0000015645
      7   7  42  36         0.0000015645
      3   6  19  43        -0.0000015578
      6   3  43  19        -0.0000015578
      2   6  43   3         0.0000015511
      6   2   3  43         0.0000015511
      1   3  38   1         0.0000015379
      3   1   1  38         0.0000015379
      1   5  23  30         0.0000014998
      5   1  30  23         0.0000014998
      0   4  40   3        -0.0000014716
      4   0   3  40        -0.0000014716
      0   4  42   3         0.0000014651
      4   0   3  42         0.0000014651
      0   4  43  19         0.0000014416
      4   0  19  43         0.0000014416
      1   6  33  27         0.0000014295
      6   1  27  33         0.0000014295
      1   2  16  21        -0.0000014165
      2   1  21  16        -0.0000014165
      1   7  28  35        -0.0000014028
      7   1  35  28        -0.0000014028
      0   1   4  23        -0.0000013505
      1   0  23   4        -0.0000013505
      0   2  22  34         0.0000012981
      2   0  34  22         0.0000012981
      4   4  36  42         0.0000012927
      4   4  42  36         0.0000012927
      4   5   6  42        -0.0000012393
      5   4  42   6        -0.0000012393
      0   2   7  39         0.0000012391
      2   0  39   7         0.0000012391
      1   7  31  10        -0.0000012380
      7   1  10  31        -0.0000012380
      1   6  43   7         0.0000012177
      6   1   7  43         0.0000012177
      0   7  43  26         0.0000012108
      7   0  26  43         0.0000012108
      0   7  42  18        -0.0000011963
      7   0  18  42        -0.0000011963
      2   5  40  42        -0.0000011859
      5   2  42  40        -0.0000011859
      0   4  27  15         0.0000011132
      4   0  15  27         0.0000011132
      1   6   2   6        -0.0000010780
      6   1   6   2        -0.0000010780
      0   2   1  16        -0.0000010436
      2   0  16   1        -0.0000010436
      0   6  43   3         0.0000010318
      6   0   3  43         0.0000010318
      2   4  14   5         0.0000010307
      4   2   5  14         0.0000010307
      0   3   2  30        -0.0000010242
      3   0  30   2        -0.0000010242
      1   3  38  35        -0.0000010168
      3   1  35  38        -0.0000010168
      2   5  43   1        -0.0000010066
      5   2   1  43        -0.0000010066
      0   5  42  23        -0.0000009848
      5   0  23  42        -0.0000009848
      5   6  42  22         0.0000009817
      6   5  22  42         0.0000009817
      0   4  43   7         0.0000009794
      4   0   7  43         0.0000009794
      0   5  35  16         0.0000009602
      5   0  16  35         0.0000009602
      1   2   5   1         0.0000009037
      2   1   1   5         0.0000009037
      0   4  42   6        -0.0000008833
      4   0   6  42        -0.0000008833
      0   3  15  35         0.0000008764
      3   0  35  15         0.0000008764
      6   7  29  35         0.0000008580
      7   6  35  29         0.0000008580
      1   7  21   0        -0.0000008346
      7   1   0  21        -0.0000008346
      1   2  23  41         0.0000007969
      2   1  41  23         0.0000007969
      0   4  42  27         0.0000007939
      4   0  27  42         0.0000007939
      1   6  43  19         0.0000007642
      6   1  19  43         0.0000007642
      0   4  34   4        -0.0000007429
      4   0   4  34        -0.0000007429
      3   5  42  43        -0.0000007265
      5   3  43  42        -0.0000007265
      1   6  32  26        -0.0000007188
      6   1  26  32        -0.0000007188
      2   2  25  43         0.0000006489
      2   2  43  25         0.0000006489
      0   4  23  37         0.0000006166
      4   0  37  23         0.0000006166
      1   2   0  28         0.0000005811
      2   1  28   0         0.0000005811
      1   3  22  19         0.0000005734
      3   1  19  22         0.0000005734
      0   7  29  27         0.0000005645
      7   0  27  29         0.0000005645
      0   4  43  11         0.0000005534
      4   0  11  43         0.0000005534
      0   7  43   9         0.0000005482
      7   0   9  43         0.0000005482
      0   6  42   7         0.0000005442
      6   0   7  42         0.0000005442
      1   3  19  34         0.0000004332
      3   1  34  19         0.0000004332
      1   6  43  11         0.0000004206
      6   1  11  43         0.0000004206
      0   5  42  36         0.0000004196
      5   0  36  42         0.0000004196
      0   3  34  14        -0.0000004170
      3   0  14  34        -0.0000004170
      1   7  31  15         0.0000004127
      7   1  15  31         0.0000004127
      5   5  38  43         0.0000004036
      5   5  43  38         0.0000004036
      0   6  43  14         0.0000004000
      6   0  14  43         0.0000004000
      1   2   6  39         0.0000003985
      2   1  39   6         0.0000003985
      0   5  43  16        -0.0000003944
      5   0  16  43        -0.0000003944
      0   5  42  33        -0.0000003115
      5   0  33  42        -0.0000003115
      1   4  11   2         0.0000002788
      4   1   2  11         0.0000002788
      1   4  43   6         0.0000002735
      4   1   6  43         0.0000002735
      0   6  43   6        -0.0000002444
      6   0   6  43        -0.0000002444
      0   6  43  27        -0.0000002306
      6   0  27  43        -0.0000002306
      1   4  42  11        -0.0000002065
      4   1  11  42        -0.0000002065
      0   4  29  28         0.0000002011
      4   0  28  29         0.0000002011
      0   0  17  17        -0.0000001547
      4   6  41   5        -0.0000001494
      6   4   5  41        -0.0000001494
      1   7  43   8         0.0000001457
      7   1   8  43         0.0000001457
      1   7  31   2        -0.0000000858
      7   1   2  31        -0.0000000858
      2   6  14  43         0.0000000848
      6   2  43  14         0.0000000848
      1   1  20  20         0.0000000346
      0   2  34  22        -0.0000000344
      2   0  22  34        -0.0000000344
      0   6  39  15        -0.0000000235
      6   0  15  39        -0.0000000235
      1   1  17  17         0.0000000171
      0   0  20  20         0.0000000155

    SCF energy       (wfn)                    =  -78.048916845831656
    Reference energy (file100)                =  -78.048916845831485

    Opposite-spin MP2 correlation energy      =   -0.243415277990342
    Same-spin MP2 correlation energy          =   -0.060204099590117
    MP2 correlation energy                    =   -0.303619377580460
      * MP2 total energy                      =  -78.352536223411946

    Opposite-spin CCSD correlation energy     =   -0.279599644121496
    Same-spin CCSD correlation energy         =   -0.054867001609097
    CCSD correlation energy                   =   -0.334466645730593
      * CCSD total energy                     =  -78.383383491562071


*** tstop() called on Berts-MacBook-Pro.local at Wed Dec  6 21:18:54 2017
Module time:
	user time   =     148.53 seconds =       2.48 minutes
	system time =       2.53 seconds =       0.04 minutes
	total time  =        152 seconds =       2.53 minutes
Total time:
	user time   =     201.40 seconds =       3.36 minutes
	system time =       3.57 seconds =       0.06 minutes
	total time  =        206 seconds =       3.43 minutes

*** Psi4 exiting successfully. Buy a developer a beer!
