
    -----------------------------------------------------------------------
          Psi4: An Open-Source Ab Initio Electronic Structure Package
                               Psi4 1.1 release

                         Git: Rev {HEAD} add49b9 


    R. M. Parrish, L. A. Burns, D. G. A. Smith, A. C. Simmonett,
    A. E. DePrince III, E. G. Hohenstein, U. Bozkaya, A. Yu. Sokolov,
    R. Di Remigio, R. M. Richard, J. F. Gonthier, A. M. James,
    H. R. McAlexander, A. Kumar, M. Saitow, X. Wang, B. P. Pritchard,
    P. Verma, H. F. Schaefer III, K. Patkowski, R. A. King, E. F. Valeev,
    F. A. Evangelista, J. M. Turney, T. D. Crawford, and C. D. Sherrill,
    J. Chem. Theory Comput. in press (2017).
    (doi: 10.1021/acs.jctc.7b00174)

    -----------------------------------------------------------------------


    Psi4 started on: Wednesday, 06 December 2017 10:34PM

    Process ID:  12097
    PSIDATADIR: /anaconda3/share/psi4
    Memory:     500.0 MiB
    Threads:    1
    
  ==> Input File <==

--------------------------------------------------------------------------
"""This is a template for psi4 input format."""
import numpy
import sys

from openfermion.config import *
from openfermion.ops._interaction_tensor import (one_body_basis_change,
                                              two_body_basis_change)
from openfermion.hamiltonians import MolecularData
from numpy import array

sys.path.append('/Users/wadejong/Desktop/Quantum-Computing/OpenFermion/OpenFermion-Psi4/openfermionpsi4')
from _psi4_conversion_functions import *

# Set number of threads in PSI4
set_num_threads(8)

# Set memory that job can use in megabytes.
memory 8000 mb

# Initialize molecular data.
_description = 'ethylene_1.72788'
if _description == 'None':
    _description = None
molecule = MolecularData([['C', array([ 0.      ,  0.      ,  0.673055])], ['C', array([ 0.      ,  0.      , -0.673055])], ['H', array([ 0.      ,  0.934981,  1.246807])], ['H', array([ 0.      , -0.934981,  1.246807])], ['H', array([ 0.92346983,  0.14626325, -1.246807  ])], ['H', array([-0.92346983, -0.14626325, -1.246807  ])]],
                         'DZP',
                         1,
                         0,
                         _description,
                          filename='/Users/wadejong/Desktop/QCQCSiddiqi/8_Qubit_Simulation/data/H4-C2_DZP_singlet_ethylene_1.72788')

# Set molecular geometry and symmetry.
molecule mol {
C 0.0 0.0 0.673055
C 0.0 0.0 -0.673055
H 0.0 0.934981 1.246807
H 0.0 -0.934981 1.246807
H 0.9234698323779824 0.14626325255778003 -1.246807
H -0.9234698323779824 -0.14626325255778003 -1.246807
symmetry c1
}
mol.set_multiplicity(1)
mol.set_molecular_charge(0)

# Set reference and guess.
if molecule.multiplicity == 1:
    set reference rhf
    set guess sad
    set sad_frac_occ true
else:
    set reference rohf
    set guess sad
    set sad_frac_occ true

# Set global parameters of calculation.
set globals {
    basis DZP
    freeze_core false
    fail_on_maxiter true
    df_scf_guess false
    guess sad
    sad_frac_occ true
    opdm false
    tpdm false
    soscf true
    scf_type pk
    diis true
    maxiter 1e6
    num_amps_print 1e6
    r_convergence 1e-7
    d_convergence 1e-7
    e_convergence 1e-7
    ints_tolerance EQUALITY_TOLERANCE
    damping_percentage 0
}

# Run self-consistent field (SCF) calculation.
if True:
    try:

        hf_energy, hf_wavefunction = energy('scf', return_wfn=True)
        scf_wfn = hf_wavefunction
        if True:
            print('Hartree-Fock energy for {} ({} electrons) is {}.'.format(
                molecule.name, molecule.n_electrons, hf_energy))
    except:
        if True:
            print('WARNING: SCF calculation failed.')
        else:
            raise
    else:
        # Get orbitals and Fock matrix.
        molecule.hf_energy = hf_energy
        molecule.nuclear_repulsion = mol.nuclear_repulsion_energy()
        molecule.canonical_orbitals = numpy.asarray(hf_wavefunction.Ca())
        molecule.n_orbitals = molecule.canonical_orbitals.shape[0]
        molecule.n_qubits = 2 * molecule.n_orbitals
        molecule.orbital_energies = numpy.asarray(hf_wavefunction.epsilon_a())
        molecule.fock_matrix = numpy.asarray(hf_wavefunction.Fa())

        # Get integrals using MintsHelper.
        mints = MintsHelper(hf_wavefunction.basisset())
        molecule.one_body_integrals = one_body_basis_change(
            numpy.asarray(mints.ao_kinetic()), molecule.canonical_orbitals)
        molecule.one_body_integrals += one_body_basis_change(
            numpy.asarray(mints.ao_potential()), molecule.canonical_orbitals)
        two_body_integrals = numpy.asarray(mints.ao_eri())
        two_body_integrals.reshape((molecule.n_orbitals, molecule.n_orbitals,
                                    molecule.n_orbitals, molecule.n_orbitals))
        two_body_integrals = numpy.einsum('psqr', two_body_integrals)
        two_body_integrals = two_body_basis_change(
            two_body_integrals, molecule.canonical_orbitals)
        molecule.two_body_integrals = two_body_integrals
        molecule.save()


# Perform MP2 energy calculation if there are at least two electrons.
if True:
    try:
        assert molecule.n_electrons > 1
        mp2_energy = energy('mp2',ref_wfn=scf_wfn)
        if True:
            print('MP2 energy for {} ({} electrons) is {}.'.format(
                molecule.name, molecule.n_electrons, mp2_energy))
    except:
        if True:
            print('WARNING: MP2 calculation failed.')
        else:
            raise
    else:
        molecule.mp2_energy = mp2_energy
        molecule.save()


# Perform configuration interaction singles and doubles (CISD) calculation.
if True:
    set qc_module detci
    try:
        cisd_energy, cisd_wavefunction = energy('cisd', ref_wfn=scf_wfn, return_wfn=True)
        if True:
            print('CISD energy for {} ({} electrons) is {}.'.format(
                molecule.name, molecule.n_electrons, cisd_energy))
    except:
        if True:
            print('WARNING: CISD calculation failed.')
        else:
            raise
    else:
        # For the functions below, "a" and "b" refer to "up and "down" spins.
        molecule.cisd_energy = cisd_energy

        # Get 1-RDM from CISD calculation.
        """cisd_one_rdm_a = numpy.array(cisd_wavefunction.get_opdm(
            0, 0, 'A', True)).reshape(molecule.n_orbitals, molecule.n_orbitals)
        cisd_one_rdm_b = numpy.array(cisd_wavefunction.get_opdm(
            0, 0, 'B', True)).reshape(molecule.n_orbitals, molecule.n_orbitals)

        # Get 2-RDM from CISD calculation.
        cisd_two_rdm_aa = numpy.array(cisd_wavefunction.get_tpdm(
            'AA', False)).reshape(molecule.n_orbitals, molecule.n_orbitals,
                                  molecule.n_orbitals, molecule.n_orbitals)
        cisd_two_rdm_ab = numpy.array(cisd_wavefunction.get_tpdm(
            'AB', False)).reshape(molecule.n_orbitals, molecule.n_orbitals,
                                  molecule.n_orbitals, molecule.n_orbitals)
        cisd_two_rdm_bb = numpy.array(cisd_wavefunction.get_tpdm(
            'BB', False)).reshape(molecule.n_orbitals, molecule.n_orbitals,
                                  molecule.n_orbitals, molecule.n_orbitals)

        # Get overall RDMs.
        cisd_one_rdm, cisd_two_rdm = unpack_spatial_rdm(
            cisd_one_rdm_a, cisd_one_rdm_b, cisd_two_rdm_aa,
            cisd_two_rdm_ab, cisd_two_rdm_bb)

        # Store 1-RDM in molecule file, 2-RDM separately in other file.
        molecule.cisd_one_rdm = cisd_one_rdm
        molecule.cisd_two_rdm = cisd_two_rdm
        molecule.save()"""


# Perform exact diagonalization.
if False:
    set qc_module detci
    try:
        fci_energy, fci_wavefunction = energy('fci', ref_wfn=scf_wfn, return_wfn=True)
        if True:
            print('FCI energy for {} ({} electrons) is {}.'.format(
                molecule.name, molecule.n_electrons, fci_energy))
    except:
        if True:
            print('WARNING: FCI calculation failed.')
        else:
            raise
    else:
        # For the functions below, "a" and "b" refer to "up and "down" spins.
        molecule.fci_energy = fci_energy

        # Get 1-RDM from FCI calculation.
        """fci_one_rdm_a = numpy.array(fci_wavefunction.get_opdm(
            0, 0, 'A', True)).reshape(molecule.n_orbitals, molecule.n_orbitals)
        fci_one_rdm_b = numpy.array(fci_wavefunction.get_opdm(
            0, 0, 'B', True)).reshape(molecule.n_orbitals, molecule.n_orbitals)

        # Get 2-RDM from FCI calculation.
        fci_two_rdm_aa = numpy.array(fci_wavefunction.get_tpdm(
            'AA', False)).reshape(molecule.n_orbitals, molecule.n_orbitals,
                                  molecule.n_orbitals, molecule.n_orbitals)
        fci_two_rdm_ab = numpy.array(fci_wavefunction.get_tpdm(
            'AB', False)).reshape(molecule.n_orbitals, molecule.n_orbitals,
                                  molecule.n_orbitals, molecule.n_orbitals)
        fci_two_rdm_bb = numpy.array(fci_wavefunction.get_tpdm(
            'BB', False)).reshape(molecule.n_orbitals, molecule.n_orbitals,
                                  molecule.n_orbitals, molecule.n_orbitals)

        # Get overall RDMs.
        fci_one_rdm, fci_two_rdm = unpack_spatial_rdm(
            fci_one_rdm_a, fci_one_rdm_b,
            fci_two_rdm_aa, fci_two_rdm_ab, fci_two_rdm_bb)

        # Store 1-RDM in molecule file, 2-RDM separately in other file.
        molecule.fci_one_rdm = fci_one_rdm
        molecule.fci_two_rdm = fci_two_rdm
        molecule.save()"""


# Perform coupled cluster singles and doubles (CCSD) calculation.
if True:
    set qc_module ccenergy
    try:
        ccsd_energy = energy('ccsd',ref_wfn=scf_wfn)
        if True:
            print('CCSD energy for {} ({} electrons) is {}.'.format(
                molecule.name, molecule.n_electrons, ccsd_energy))
    except:
        if True:
            print('WARNING: CCSD calculation failed.')
        else:
            raise
    else:
        molecule.ccsd_energy = ccsd_energy

        # Merge CC amplitudes into molecule by parsing
        psi_filename = outfile_name()
        ccsd_amplitudes = parse_psi4_ccsd_amplitudes(
            2 * molecule.n_orbitals,
            molecule.get_n_alpha_electrons(),
            molecule.get_n_beta_electrons(),
            psi_filename)
        molecule.ccsd_amplitudes = ccsd_amplitudes
        molecule.save()
--------------------------------------------------------------------------
  Python driver attempted to set threads to 8.
  Psi4 was compiled without OpenMP, setting threads to 1.

  Memory set to   7.451 GiB by Python driver.

*** tstart() called on Berts-MacBook-Pro.local
*** at Wed Dec  6 22:34:34 2017

   => Loading Basis Set <=

    Name: DZP
    Role: ORBITAL
    Keyword: BASIS
    atoms 1-2 entry C          line    73 file /anaconda3/share/psi4/basis/dzp.gbs 
    atoms 3-6 entry H          line    16 file /anaconda3/share/psi4/basis/dzp.gbs 


         ---------------------------------------------------------
                                   SCF
            by Justin Turney, Rob Parrish, and Andy Simmonett
                              RHF Reference
                        1 Threads,   7629 MiB Core
         ---------------------------------------------------------

  ==> Geometry <==

    Molecular point group: c1
    Full point group: D2

    Geometry (in Angstrom), charge = 0, multiplicity = 1:

       Center              X                  Y                   Z               Mass       
    ------------   -----------------  -----------------  -----------------  -----------------
           C          0.000000000000     0.000000000000     0.673055000000    12.000000000000
           C          0.000000000000     0.000000000000    -0.673055000000    12.000000000000
           H         -0.607221585676     0.710965130123     1.246807000000     1.007825032070
           H          0.607221585676    -0.710965130123     1.246807000000     1.007825032070
           H          0.607221585676     0.710965130123    -1.246807000000     1.007825032070
           H         -0.607221585676    -0.710965130123    -1.246807000000     1.007825032070

  Running in c1 symmetry.

  Rotational constants: A =      4.78350  B =      0.90510  C =      0.87908 [cm^-1]
  Rotational constants: A = 143405.72603  B =  27134.07372  C =  26354.01423 [MHz]
  Nuclear repulsion =   32.993215500298881

  Charge       = 0
  Multiplicity = 1
  Electrons    = 16
  Nalpha       = 8
  Nbeta        = 8

  ==> Algorithm <==

  SCF Algorithm Type is PK.
  DIIS enabled.
  MOM disabled.
  Fractional occupation disabled.
  Guess Type is SAD.
  Energy threshold   = 1.00e-07
  Density threshold  = 1.00e-07
  Integral threshold = 0.00e+00

  ==> Primary Basis <==

  Basis Set: DZP
    Blend: DZP
    Number of shells: 26
    Number of basis function: 52
    Number of Cartesian functions: 52
    Spherical Harmonics?: false
    Max angular momentum: 2

  ==> Pre-Iterations <==

   -------------------------------------------------------
    Irrep   Nso     Nmo     Nalpha   Nbeta   Ndocc  Nsocc
   -------------------------------------------------------
     A         52      52       0       0       0       0
   -------------------------------------------------------
    Total      52      52       8       8       8       0
   -------------------------------------------------------

  ==> Integral Setup <==

  Using in-core PK algorithm.
   Calculation information:
      Number of atoms:                   6
      Number of AO shells:              26
      Number of primitives:             50
      Number of atomic orbitals:        52
      Number of basis functions:        52

      Integral cutoff                 1.00e-12
      Number of threads:                 1

  Performing in-core PK
  Using 1900262 doubles for integral storage.
  We computed 61769 shell quartets total.
  Whereas there are 61776 unique shell quartets.
  ==> DiskJK: Disk-Based J/K Matrices <==

    J tasked:                  Yes
    K tasked:                  Yes
    wK tasked:                  No
    Memory (MB):              5722
    Schwarz Cutoff:          1E-12

    OpenMP threads:              1
  Minimum eigenvalue in the overlap matrix is 9.1355347148E-03.
  Using Symmetric Orthogonalization.

  SCF Guess: Superposition of Atomic Densities via on-the-fly atomic UHF.

  ==> Iterations <==

                        Total Energy        Delta E     RMS |[F,P]|

   @RHF iter   0:   -69.16373720971553   -6.91637e+01   1.01492e-01 
   @RHF iter   1:   -74.11596117118114   -4.95222e+00   4.01601e-02 
   @RHF iter   2:   -76.98924203239383   -2.87328e+00   2.48735e-02 DIIS/DAMP
   @RHF iter   3:   -77.89527754825018   -9.06036e-01   2.46594e-03 DIIS/DAMP
   @RHF iter   4:   -77.90830959054651   -1.30320e-02   4.72418e-04 SOSCF, nmicro = 4/DAMP
   @RHF iter   5:   -77.90924279171277   -9.33201e-04   2.61649e-06 SOSCF, nmicro = 4/DAMP
   @RHF iter   6:   -77.90924281105819   -1.93454e-08   9.98721e-09 SOSCF, conv/DAMP

  ==> Post-Iterations <==

    Orbital Energies (a.u.)
    -----------------------

    Doubly Occupied:                                                      

       1A    -11.250873     2A    -11.249401     3A     -1.032926  
       4A     -0.791730     5A     -0.605550     6A     -0.588196  
       7A     -0.575749     8A     -0.272260  

    Virtual:                                                              

       9A      0.057242    10A      0.256874    11A      0.321892  
      12A      0.323976    13A      0.411581    14A      0.420838  
      15A      0.438819    16A      0.456302    17A      0.467931  
      18A      0.560779    19A      0.581367    20A      0.692648  
      21A      0.812861    22A      1.001961    23A      1.221980  
      24A      1.292483    25A      1.292633    26A      1.339477  
      27A      1.528154    28A      1.661922    29A      1.827609  
      30A      1.908970    31A      1.966985    32A      2.015294  
      33A      2.090336    34A      2.105354    35A      2.258503  
      36A      2.427579    37A      2.459003    38A      2.462713  
      39A      2.561777    40A      2.815367    41A      2.893465  
      42A      2.904683    43A      2.935498    44A      3.189691  
      45A      3.376341    46A      3.537237    47A      3.619428  
      48A      3.686400    49A      4.261829    50A      4.483804  
      51A     27.639342    52A     27.648556  

    Final Occupation by Irrep:
              A 
    DOCC [     8 ]

  Energy converged.

  @RHF Final Energy:   -77.90924281105819

   => Energetics <=

    Nuclear Repulsion Energy =             32.9932155002988807
    One-Electron Energy =                -169.0715481622348761
    Two-Electron Energy =                  58.1690898508778105
    DFT Exchange-Correlation Energy =       0.0000000000000000
    Empirical Dispersion Energy =           0.0000000000000000
    PCM Polarization Energy =               0.0000000000000000
    EFP Energy =                            0.0000000000000000
    Total Energy =                        -77.9092428110581920



Properties will be evaluated at   0.000000,   0.000000,   0.000000 Bohr

Properties computed using the SCF density matrix

  Nuclear Dipole Moment: (a.u.)
     X:     0.0000      Y:     0.0000      Z:     0.0000

  Electronic Dipole Moment: (a.u.)
     X:    -0.0000      Y:    -0.0000      Z:    -0.0000

  Dipole Moment: (a.u.)
     X:    -0.0000      Y:    -0.0000      Z:    -0.0000     Total:     0.0000

  Dipole Moment: (Debye)
     X:    -0.0000      Y:    -0.0000      Z:    -0.0000     Total:     0.0000


*** tstop() called on Berts-MacBook-Pro.local at Wed Dec  6 22:34:35 2017
Module time:
	user time   =       0.39 seconds =       0.01 minutes
	system time =       0.15 seconds =       0.00 minutes
	total time  =          1 seconds =       0.02 minutes
Total time:
	user time   =       0.39 seconds =       0.01 minutes
	system time =       0.15 seconds =       0.00 minutes
	total time  =          1 seconds =       0.02 minutes

*** tstart() called on Berts-MacBook-Pro.local
*** at Wed Dec  6 22:34:39 2017


  //>>>>>>>>>>>>>>>>>>>>>>>>>>>>>>>>>>>//
  //               DFMP2               //
  //<<<<<<<<<<<<<<<<<<<<<<<<<<<<<<<<<<<//

   => Loading Basis Set <=

    Name: (DZP AUX)
    Role: RIFIT
    Keyword: DF_BASIS_MP2
    atoms 1-2 entry C          line   269 file /anaconda3/share/psi4/basis/def2-qzvpp-ri.gbs 
    atoms 3-6 entry H          line    23 file /anaconda3/share/psi4/basis/def2-qzvpp-ri.gbs 

	 --------------------------------------------------------
	                          DF-MP2                         
	      2nd-Order Density-Fitted Moller-Plesset Theory     
	              RMP2 Wavefunction,   1 Threads             
	                                                         
	        Rob Parrish, Justin Turney, Andy Simmonett,      
	           Ed Hohenstein, and C. David Sherrill          
	 --------------------------------------------------------

   => Auxiliary Basis Set <=

  Basis Set: (DZP AUX)
    Blend: DEF2-QZVPP-RI
    Number of shells: 130
    Number of basis function: 506
    Number of Cartesian functions: 666
    Spherical Harmonics?: true
    Max angular momentum: 5

	 --------------------------------------------------------
	                 NBF =    52, NAUX =   506
	 --------------------------------------------------------
	   CLASS    FOCC     OCC    AOCC    AVIR     VIR    FVIR
	   PAIRS       0       8       8      44      44       0
	 --------------------------------------------------------

	-----------------------------------------------------------
	 ==================> DF-MP2 Energies <==================== 
	-----------------------------------------------------------
	 Reference Energy          =     -77.9092428110581920 [Eh]
	 Singles Energy            =      -0.0000000000000000 [Eh]
	 Same-Spin Energy          =      -0.0617336141579995 [Eh]
	 Opposite-Spin Energy      =      -0.2521765035493465 [Eh]
	 Correlation Energy        =      -0.3139101177073460 [Eh]
	 Total Energy              =     -78.2231529287655434 [Eh]
	-----------------------------------------------------------
	 ================> DF-SCS-MP2 Energies <================== 
	-----------------------------------------------------------
	 SCS Same-Spin Scale       =       0.3333333333333333 [-]
	 SCS Opposite-Spin Scale   =       1.2000000000000000 [-]
	 SCS Same-Spin Energy      =      -0.0205778713859998 [Eh]
	 SCS Opposite-Spin Energy  =      -0.3026118042592158 [Eh]
	 SCS Correlation Energy    =      -0.3231896756452156 [Eh]
	 SCS Total Energy          =     -78.2324324867034022 [Eh]
	-----------------------------------------------------------


*** tstop() called on Berts-MacBook-Pro.local at Wed Dec  6 22:34:39 2017
Module time:
	user time   =       0.29 seconds =       0.00 minutes
	system time =       0.06 seconds =       0.00 minutes
	total time  =          0 seconds =       0.00 minutes
Total time:
	user time   =       4.60 seconds =       0.08 minutes
	system time =       0.35 seconds =       0.01 minutes
	total time  =          5 seconds =       0.08 minutes
 MINTS: Wrapper to libmints.
   by Justin Turney

   Calculation information:
      Number of threads:                 1
      Number of atoms:                   6
      Number of AO shells:              26
      Number of SO shells:              26
      Number of primitives:             50
      Number of atomic orbitals:        52
      Number of basis functions:        52

      Number of irreps:                  1
      Integral cutoff                 0.00e+00
      Number of functions per irrep: [  52 ]

 OEINTS: Overlap, kinetic, potential, dipole, and quadrupole integrals
         stored in file 35.

      Computing two-electron integrals...done
      Computed 838083 non-zero two-electron integrals.
        Stored in file 33.


         ---------------------------------------------------------
                          Configuration Interaction
                            (a 'D E T C I' module)

                 C. David Sherrill, Daniel G. A. Smith, and
                              Matt L. Leininger
         ---------------------------------------------------------


   ==> Parameters <==

    EX LEVEL       =        2      H0 BLOCKSIZE  =     1000
    VAL EX LEVEL   =        0      H0 GUESS SIZE =     1000
    H0COUPLINGSIZE =        0      H0 COUPLING   =       NO
    MAXITER        =       24      NUM PRINT     =       20
    NUM ROOTS      =        1      ICORE         =        1
    PRINT LVL      =        1      FCI           =       NO
    R CONV         = 1.00e-07      MIXED         =      YES
    E CONV         = 1.00e-07      MIXED4        =      YES
    R4S            =       NO      REPL OTF      =       NO
    DIAG METHOD    =      SEM      FOLLOW ROOT   =        0
    PRECONDITIONER = DAVIDSON      UPDATE        = DAVIDSON
    S              =   0.0000      Ms0           =      YES
    GUESS VECTOR   =  H0BLOCK      OPENTYPE      =     NONE
    COLLAPSE SIZE  =        1      HD AVG        = EVANGELISTI
    MAX NUM VECS   =       25      REF SYM       =     AUTO
    IOPEN        =       NO

    EX ALLOW       =  1  1 
    STATE AVERAGE  =  0(1.00) 

   ==> CI Orbital and Space information <==

    RAS1 LVL      =        7      A RAS3 MAX    =        2
    RAS1 MIN      =       14      B RAS3 MAX    =        2
    A RAS1 LVL    =        7      RAS4 LVL      =       52
    A RAS1 MIN    =        6      A RAS4 MAX    =        0
    A RAS1 MAX    =        8      B RAS4 MAX    =        0
    B RAS1 LVL    =        7      RAS4 MAX      =        0
    B RAS1 MIN    =        6      A RAS34 MAX   =        2
    B RAS1 MAX    =        8      B RAS34 MAX   =        2
    RAS3 LVL      =        8      RAS34 MAX     =        2
    RAS3 MAX      =        2
   ------------------------------------
               Space    Total     A
   ------------------------------------
                 Nso       52    52
                 Nmo       52    52
               Ndocc        8     8
               Nsocc        0     0
   ------------------------------------
              CI Spaces
   ------------------------------------
        Dropped DOCC        0     0
                RAS1        8     8
                RAS2        0     0
                RAS3       44    44
                RAS4        0     0
      Active (total)       52    52
        Dropped UOCC        0     0
   ------------------------------------

   ==> Setting up CI strings <==

    There are 26841 alpha and 26841 beta strings
    The CI space requires 177585 (1.78E+05) determinants and 6 blocks

   ==> Transforming CI integrals <==

	Presorting SO-basis two-electron integrals.
	Sorting File: SO Ints (nn|nn) nbuckets = 1
	Transforming the one-electron integrals and constructing Fock matrices
	Starting first half-transformation.
	Sorting half-transformed integrals.
	First half integral transformation complete.
	Starting second half-transformation.
	Two-electron integral transformation complete.

   ==> Starting CI iterations <==

    H0 Block Eigenvalue = -77.97501160

    Simultaneous Expansion Method (Block Davidson Method)
    Using 1 initial trial vectors

     Iter   Root       Total Energy       Delta E      C RMS

   @CI  0:     0    -77.975011602074   -1.1097E+02   1.3361E+00  
   @CI  1:     0    -78.178205739207   -2.0319E-01   1.6780E-01  
   @CI  2:     0    -78.218512394370   -4.0307E-02   1.1296E-01  
   @CI  3:     0    -78.226805931219   -8.2935E-03   3.5622E-02  
   @CI  4:     0    -78.227327198912   -5.2127E-04   9.3934E-03  
   @CI  5:     0    -78.227368315935   -4.1117E-05   2.7352E-03  
   @CI  6:     0    -78.227371556044   -3.2401E-06   8.1590E-04  
   @CI  7:     0    -78.227371810479   -2.5443E-07   2.2631E-04  
   @CI  8:     0    -78.227371828689   -1.8210E-08   5.6871E-05  
   @CI  9:     0    -78.227371829770   -1.0809E-09   1.3957E-05  
   @CI 10:     0    -78.227371829837   -6.6379E-11   3.1856E-06  
   @CI 11:     0    -78.227371829840   -3.2827E-12   6.8431E-07  
    Warning: Norm of correction (root 0) is < 1.0E-13
   @CI 12:     0    -78.227371829840   -1.5632E-13   1.7862E-07  
    Warning: Norm of correction (root 0) is < 1.0E-13
   @CI 13:     0    -78.227371829840   -1.4211E-14   4.7041E-08 c

   ==> Energetics <==

    SCF energy =            0.000000000000000
    Total CI energy =     -78.227371829840138

   ==> CISD root 0 information <==

    CISD Root 0 energy =   -78.227371829840138

   The 20 most important determinants:

    *   1   -0.940396  (    0,    0)  1AX 2AX 3AX 4AX 5AX 6AX 7AX 8AX 
    *   2    0.146842  (    1,    1)  1AX 2AX 3AX 4AX 5AX 6AX 7AX 9AX 
    *   3    0.045314  (    1,   81)  1AX 2AX 3AX 4AX 5AX 6AX 7AX 9AA 19AB 
    *   4    0.045314  (   81,    1)  1AX 2AX 3AX 4AX 5AX 6AX 7AX 9AB 19AA 
    *   5   -0.033673  (    1,    2)  1AX 2AX 3AX 4AX 5AX 6AX 7AA 8AB 9AX 
    *   6   -0.033673  (    2,    1)  1AX 2AX 3AX 4AX 5AX 6AX 7AB 8AA 9AX 
    *   7    0.027011  (   99,   99)  1AX 2AX 3AX 4AX 5AX 7AX 8AX 21AX 
    *   8    0.023788  (    2,    2)  1AX 2AX 3AX 4AX 5AX 6AX 8AX 9AX 
    *   9   -0.021727  (    0,   73)  1AX 2AX 3AX 4AX 5AX 6AX 7AX 8AA 18AB 
    *  10   -0.021727  (   73,    0)  1AX 2AX 3AX 4AX 5AX 6AX 7AX 8AB 18AA 
    *  11    0.021243  (   73,   73)  1AX 2AX 3AX 4AX 5AX 6AX 7AX 18AX 
    *  12    0.021126  (    1,   99)  1AX 2AX 3AX 4AX 5AX 6AA 7AX 8AB 9AA 21AB 
    *  13    0.021126  (   99,    1)  1AX 2AX 3AX 4AX 5AX 6AB 7AX 8AA 9AB 21AA 
    *  14    0.020046  (   81,   81)  1AX 2AX 3AX 4AX 5AX 6AX 7AX 19AX 
    *  15   -0.019266  (    2,   81)  1AX 2AX 3AX 4AX 5AX 6AX 7AB 8AA 9AA 19AB 
    *  16   -0.019266  (   81,    2)  1AX 2AX 3AX 4AX 5AX 6AX 7AA 8AB 9AB 19AA 
    *  17    0.019071  (    5,    5)  1AX 2AX 3AX 5AX 6AX 7AX 8AX 9AX 
    *  18    0.018364  (   44,   44)  1AX 2AX 3AX 4AX 6AX 7AX 8AX 14AX 
    *  19    0.017890  (   35,   35)  1AX 2AX 3AX 4AX 5AX 7AX 8AX 13AX 
    *  20    0.016828  (   81,   99)  1AX 2AX 3AX 4AX 5AX 6AA 7AX 8AB 19AA 21AB 

		 "A good bug is a dead bug" 

			 - Starship Troopers

		 "I didn't write FORTRAN.  That's the problem."

			 - Edward Valeev
 MINTS: Wrapper to libmints.
   by Justin Turney

   Calculation information:
      Number of threads:                 1
      Number of atoms:                   6
      Number of AO shells:              26
      Number of SO shells:              26
      Number of primitives:             50
      Number of atomic orbitals:        52
      Number of basis functions:        52

      Number of irreps:                  1
      Integral cutoff                 0.00e+00
      Number of functions per irrep: [  52 ]

 OEINTS: Overlap, kinetic, potential, dipole, and quadrupole integrals
         stored in file 35.

      Computing two-electron integrals...done
      Computed 838083 non-zero two-electron integrals.
        Stored in file 33.


*** tstart() called on Berts-MacBook-Pro.local
*** at Wed Dec  6 22:35:34 2017


	Wfn Parameters:
	--------------------
	Wavefunction         = CCSD
	Number of irreps     = 1
	Number of MOs        = 52
	Number of active MOs = 52
	AO-Basis             = NONE
	Semicanonical        = false
	Reference            = RHF
	Print Level          = 1

	IRREP	# MOs	# FZDC	# DOCC	# SOCC	# VIRT	# FZVR
	-----	-----	------	------	------	------	------
	 A	   52	    0	    8	    0	    44	    0
	Transforming integrals...
	IWL integrals will be deleted.
	(OO|OO)...
	Presorting SO-basis two-electron integrals.
	Sorting File: SO Ints (nn|nn) nbuckets = 1
	Transforming the one-electron integrals and constructing Fock matrices
	Starting first half-transformation.
	Sorting half-transformed integrals.
	First half integral transformation complete.
	Starting second half-transformation.
	Two-electron integral transformation complete.
	(OO|OV)...
	Starting second half-transformation.
	Two-electron integral transformation complete.
	(OO|VV)...
	Starting second half-transformation.
	Two-electron integral transformation complete.
	(OV|OO)...
	Starting first half-transformation.
	Sorting half-transformed integrals.
	First half integral transformation complete.
	Starting second half-transformation.
	Two-electron integral transformation complete.
	(OV|OV)...
	Starting second half-transformation.
	Two-electron integral transformation complete.
	(OV|VV)...
	Starting second half-transformation.
	Two-electron integral transformation complete.
	(VV|OO)...
	Starting first half-transformation.
	Sorting half-transformed integrals.
	First half integral transformation complete.
	Starting second half-transformation.
	Two-electron integral transformation complete.
	(VV|OV)...
	Starting second half-transformation.
	Two-electron integral transformation complete.
	(VV|VV)...
	Starting second half-transformation.
	Two-electron integral transformation complete.
	Frozen core energy     =      0.00000000000000

	Size of irrep 0 of <ab|cd> integrals:      3.748 (MW) /     29.985 (MB)
	Total:                                     3.748 (MW) /     29.985 (MB)

	Size of irrep 0 of <ia|bc> integrals:      0.681 (MW) /      5.452 (MB)
	Total:                                     0.681 (MW) /      5.452 (MB)

	Size of irrep 0 of tijab amplitudes:       0.124 (MW) /      0.991 (MB)
	Total:                                     0.124 (MW) /      0.991 (MB)

	Nuclear Rep. energy          =     32.99321550029888
	SCF energy                   =    -77.90924281105819
	One-electron energy          =   -169.07154859138794
	Two-electron energy          =     58.16909028003055
	Reference energy             =    -77.90924281105850

*** tstop() called on Berts-MacBook-Pro.local at Wed Dec  6 22:35:35 2017
Module time:
	user time   =       0.27 seconds =       0.00 minutes
	system time =       0.28 seconds =       0.00 minutes
	total time  =          1 seconds =       0.02 minutes
Total time:
	user time   =      59.29 seconds =       0.99 minutes
	system time =       1.18 seconds =       0.02 minutes
	total time  =         61 seconds =       1.02 minutes

*** tstart() called on Berts-MacBook-Pro.local
*** at Wed Dec  6 22:35:35 2017

            **************************
            *                        *
            *        CCENERGY        *
            *                        *
            **************************

    Nuclear Rep. energy (wfn)     =   32.993215500298881
    SCF energy          (wfn)     =  -77.909242811058192
    Reference energy    (file100) =  -77.909242811058505

    Input parameters:
    -----------------
    Wave function   =     CCSD
    Reference wfn   =     RHF
    Brueckner       =     No
    Memory (Mbytes) =     8000.0
    Maxiter         =   1000000
    R_Convergence   =     1.0e-07
    E_Convergence   =     1.0e-07
    Restart         =     Yes
    DIIS            =     Yes
    AO Basis        =     NONE
    ABCD            =     NEW
    Cache Level     =     2
    Cache Type      =     LOW
    Print Level     =     1
    Num. of threads =     1
    # Amps to Print =     1000000
    Print MP2 Amps? =     No
    Analyze T2 Amps =     No
    Print Pair Ener =     No
    Local CC        =     No
    SCS-MP2         =     False
    SCSN-MP2        =     False
    SCS-CCSD        =     False

MP2 correlation energy -0.3139187332269109
                Solving CC Amplitude Equations
                ------------------------------
  Iter             Energy              RMS        T1Diag      D1Diag    New D1Diag    D2Diag
  ----     ---------------------    ---------   ----------  ----------  ----------   --------
     0        -0.313918733226911    0.000e+00    0.000000    0.000000    0.000000    0.181765
     1        -0.335285651199168    7.333e-02    0.008084    0.029882    0.029882    0.218249
     2        -0.349225089743251    4.681e-02    0.010823    0.040894    0.040894    0.270686
     3        -0.353793504631089    2.838e-02    0.013939    0.053515    0.053515    0.326979
     4        -0.355271541756202    1.435e-02    0.014702    0.056490    0.056490    0.369697
     5        -0.355479631402991    3.682e-03    0.014609    0.055842    0.055842    0.375620
     6        -0.355483122546532    1.083e-03    0.014588    0.055603    0.055603    0.376192
     7        -0.355489786478503    3.530e-04    0.014597    0.055576    0.055576    0.376363
     8        -0.355485657948902    9.540e-05    0.014602    0.055581    0.055581    0.376286
     9        -0.355487262627847    2.909e-05    0.014605    0.055589    0.055589    0.376315
    10        -0.355488222995841    8.553e-06    0.014606    0.055592    0.055592    0.376321
    11        -0.355488105678450    2.600e-06    0.014607    0.055593    0.055593    0.376319
    12        -0.355488110294287    7.403e-07    0.014607    0.055593    0.055593    0.376320
    13        -0.355488089142324    2.845e-07    0.014607    0.055593    0.055593    0.376320
    14        -0.355488098175196    7.829e-08    0.014607    0.055593    0.055593    0.376320

    Iterations converged.


    Largest TIA Amplitudes:
              7   9         0.0441621398
              7   6         0.0225984297
              7   8         0.0187166070
              4   0         0.0109113850
              7  17        -0.0085659849
              6   9         0.0080189916
              7  20         0.0079758511
              7  29         0.0062672854
              6   8         0.0054825044
              5   4         0.0049411065
              4   5         0.0040854869
              5  22         0.0040340710
              3  13         0.0038511885
              3  23         0.0037218321
              7  24         0.0031308959
              2  26        -0.0029098158
              4  21        -0.0027987894
              2  22         0.0027412818
              2   3        -0.0025832807
              2  40         0.0025396616
              4  32         0.0025366291
              5  34        -0.0022884729
              6  33         0.0022845405
              7  33        -0.0022485107
              6  17        -0.0021091354
              4  25         0.0020026587
              3  41         0.0018120409
              7  39         0.0017590725
              3   1        -0.0017539167
              5  11        -0.0016900423
              6  24        -0.0016734614
              5  18         0.0016643517
              4  16         0.0016566401
              4  10        -0.0016535474
              3  27        -0.0016078416
              2   4         0.0015905342
              3  35         0.0015326044
              6   6         0.0013889826
              3  19        -0.0013829157
              6  39         0.0013529719
              3  36         0.0013201196
              4  38         0.0010931490
              5  14        -0.0009905968
              3  12         0.0009633694
              5  37        -0.0009247248
              5  26         0.0009040071
              2  30        -0.0008781526
              6  20         0.0008549142
              3   2        -0.0008380551
              2  37         0.0008042767
              2  14         0.0007807199
              2  11         0.0007193086
              4   7        -0.0007028526
              1  13        -0.0005785138
              0  40        -0.0004598520
              1  41        -0.0003960247
              5  40         0.0003912858
              5   3        -0.0003410161
              5  30         0.0003341464
              1   1        -0.0003324693
              4  28         0.0003244541
              0  14        -0.0003054398
              0  11        -0.0003028477
              2  34        -0.0002927452
              6  29        -0.0002733233
              0   3        -0.0002707867
              1  12        -0.0002448076
              1  35        -0.0002371443
              0  37        -0.0001884876
              0   4        -0.0001547371
              1  27        -0.0001407906
              1   2        -0.0001397128
              0  22        -0.0001225387
              3  15        -0.0001202982
              2  42         0.0001179443
              1  36        -0.0001135351
              1  23        -0.0000994963
              1  43         0.0000953718
              0  42         0.0000950916
              3  43         0.0000908578
              3  31        -0.0000871200
              0  34        -0.0000409760
              1  15        -0.0000406745
              2  18        -0.0000290472
              5  42         0.0000164815
              1  19         0.0000114988
              0  30         0.0000034797
              0  18         0.0000033914
              1  31         0.0000007794
              0  26         0.0000004244

    Largest TIjAb Amplitudes:
      7   7   0   0        -0.3209686457
      7   7   0  10        -0.0754815342
      7   7  10   0        -0.0754815342
      6   7   0   0        -0.0447885347
      7   6   0   0        -0.0447885347
      5   5  12  12        -0.0318379554
      6   7   0  10        -0.0277978818
      7   6  10   0        -0.0277978818
      6   6   0   0        -0.0269899155
      2   7   0  12        -0.0228752972
      7   2  12   0        -0.0228752972
      4   4   5   5        -0.0225309705
      7   7   9   9        -0.0224843614
      5   7  12   0        -0.0222346788
      7   5   0  12        -0.0222346788
      5   5   4   4        -0.0218750554
      6   7  10   0        -0.0213993810
      7   6   0  10        -0.0213993810
      2   7   0   2        -0.0213779485
      7   2   2   0        -0.0213779485
      4   7   0   9         0.0212336100
      7   4   9   0         0.0212336100
      7   7  10  10        -0.0210469613
      3   7   0   3        -0.0202858036
      7   3   3   0        -0.0202858036
      6   7   0   5        -0.0201680273
      7   6   5   0        -0.0201680273
      6   6   6   6        -0.0200401488
      5   7  12  10        -0.0196535605
      7   5  10  12        -0.0196535605
      4   7   5   9        -0.0196532345
      7   4   9   5        -0.0196532345
      3   3   0   0        -0.0196037015
      2   7   0   1        -0.0194812234
      7   2   1   0        -0.0194812234
      4   6   5   6        -0.0189568784
      6   4   6   5        -0.0189568784
      5   7   4   9         0.0188899194
      7   5   9   4         0.0188899194
      3   7   3   0        -0.0185789599
      7   3   0   3        -0.0185789599
      4   7   9   0         0.0181051463
      7   4   0   9         0.0181051463
      2   7  12   0        -0.0178548635
      7   2   0  12        -0.0178548635
      2   7   1   0        -0.0173216298
      7   2   0   1        -0.0173216298
      6   7   6   9        -0.0168727932
      7   6   9   6        -0.0168727932
      3   7   0  11         0.0168207916
      7   3  11   0         0.0168207916
      4   5   5   4         0.0167247581
      5   4   4   5         0.0167247581
      3   7   0   4        -0.0167106431
      7   3   4   0        -0.0167106431
      7   7   0   7         0.0162831639
      7   7   7   0         0.0162831639
      5   6   4   6         0.0162505498
      6   5   6   4         0.0162505498
      3   7   1   9        -0.0156669899
      7   3   9   1        -0.0156669899
      3   7   0  14        -0.0155367543
      7   3  14   0        -0.0155367543
      5   5   0   0        -0.0153084048
      5   7   0   2         0.0152721960
      7   5   2   0         0.0152721960
      2   7   2   0        -0.0147970517
      7   2   0   2        -0.0147970517
      2   2  12  12        -0.0147808963
      6   6   2   2        -0.0147803585
      7   7   5   5        -0.0147190374
      6   7  10  10        -0.0142658649
      7   6  10  10        -0.0142658649
      4   4   2   2        -0.0141870361
      3   5   1   4         0.0141003259
      5   3   4   1         0.0141003259
      5   6  12   0        -0.0140429348
      6   5   0  12        -0.0140429348
      6   6   5   5        -0.0134381568
      3   7   4   0        -0.0134166710
      7   3   0   4        -0.0134166710
      4   4   3   3        -0.0133115503
      3   5   3  12        -0.0132679271
      5   3  12   3        -0.0132679271
      4   6   3   2        -0.0132675478
      6   4   2   3        -0.0132675478
      4   4   0   0        -0.0131545712
      4   7   7   9        -0.0131295875
      7   4   9   7        -0.0131295875
      3   3  12  12        -0.0129937816
      3   6   1   6        -0.0128847015
      6   3   6   1        -0.0128847015
      3   4   1   5        -0.0128770277
      4   3   5   1        -0.0128770277
      2   7   0  15        -0.0128582706
      7   2  15   0        -0.0128582706
      4   4   9   9        -0.0128107944
      2   5  13  12        -0.0125146480
      5   2  12  13        -0.0125146480
      4   6   2   3        -0.0123400592
      6   4   3   2        -0.0123400592
      2   2   0   0        -0.0123381984
      6   6   3   3        -0.0123007092
      5   5   5   5        -0.0121346577
      3   3   3   3        -0.0121229038
      3   6   0  18         0.0120769440
      6   3  18   0         0.0120769440
      6   7   0  16        -0.0119757455
      7   6  16   0        -0.0119757455
      4   6   5   9         0.0118783787
      6   4   9   5         0.0118783787
      4   4   0   5         0.0118418009
      4   4   5   0         0.0118418009
      2   7  13   0        -0.0117435806
      7   2   0  13        -0.0117435806
      5   7   2   0         0.0117354818
      7   5   0   2         0.0117354818
      3   7  13   9        -0.0117323603
      7   3   9  13        -0.0117323603
      3   3   1   1        -0.0117086755
      2   7   1  10        -0.0116921125
      7   2  10   1        -0.0116921125
      4   4   7   7        -0.0115076091
      2   7  12  10        -0.0113744661
      7   2  10  12        -0.0113744661
      2   7  13  10        -0.0112542546
      7   2  10  13        -0.0112542546
      3   3   4   4        -0.0111547567
      5   6  12  10        -0.0111539300
      6   5  10  12        -0.0111539300
      4   7   6   0        -0.0110696793
      7   4   0   6        -0.0110696793
      7   7   2   2        -0.0110380217
      3   7  14   0        -0.0109994193
      7   3   0  14        -0.0109994193
      7   7  11  11        -0.0109717974
      6   6  10  10        -0.0109264999
      3   4   0   2         0.0108917178
      4   3   2   0         0.0108917178
      3   6  13   6        -0.0108906705
      6   3   6  13        -0.0108906705
      5   5   3   3        -0.0108590718
      3   4  13   5        -0.0108581274
      4   3   5  13        -0.0108581274
      4   6   6   5        -0.0107923717
      6   4   5   6        -0.0107923717
      5   6   5   2         0.0107886542
      6   5   2   5         0.0107886542
      3   5  13   4         0.0105304943
      5   3   4  13         0.0105304943
      2   4   0  18         0.0104854350
      4   2  18   0         0.0104854350
      3   3  14  14        -0.0104151664
      4   4  18  18        -0.0103916195
      4   6   9   5         0.0103902072
      6   4   5   9         0.0103902072
      2   7   0  13        -0.0103155694
      7   2  13   0        -0.0103155694
      7   7   0   5         0.0102872645
      7   7   5   0         0.0102872645
      3   5   4  12        -0.0102386955
      5   3  12   4        -0.0102386955
      6   7   5   5         0.0102098981
      7   6   5   5         0.0102098981
      5   7   0  12        -0.0101753587
      7   5  12   0        -0.0101753587
      2   5   1  12        -0.0101178043
      5   2  12   1        -0.0101178043
      6   6  18  18        -0.0100712489
      4   4   6   6        -0.0099322822
      3   5  12   3        -0.0099265367
      5   3   3  12        -0.0099265367
      5   6  12   7        -0.0098843022
      6   5   7  12        -0.0098843022
      4   5   9  12         0.0098555322
      5   4  12   9         0.0098555322
      2   7   3   9        -0.0098199686
      7   2   9   3        -0.0098199686
      6   7   9   9         0.0098190195
      7   6   9   9         0.0098190195
      2   5   0  21        -0.0097489807
      5   2  21   0        -0.0097489807
      4   7   9  10         0.0097298645
      7   4  10   9         0.0097298645
      3   7   0  26         0.0096728438
      7   3  26   0         0.0096728438
      3   7   3  10        -0.0096686212
      7   3  10   3        -0.0096686212
      4   4   6   9         0.0096624648
      4   4   9   6         0.0096624648
      4   7   9   5        -0.0096333711
      7   4   5   9        -0.0096333711
      4   4  14  14        -0.0096179248
      6   6  14  14        -0.0095611510
      2   2  13  13        -0.0095457119
      7   7   1   1        -0.0095052788
      6   6   0  10        -0.0095023574
      6   6  10   0        -0.0095023574
      6   6  17  17        -0.0095007520
      4   4  16  16        -0.0094430665
      7   7  12  12        -0.0094264811
      5   7   0  15         0.0094163280
      7   5  15   0         0.0094163280
      5   7  12   7         0.0093291524
      7   5   7  12         0.0093291524
      3   5   2   3         0.0093269008
      5   3   3   2         0.0093269008
      7   7   7  10         0.0093250479
      7   7  10   7         0.0093250479
      4   6   7   6        -0.0093006715
      6   4   6   7        -0.0093006715
      3   5   3   2         0.0092998848
      5   3   2   3         0.0092998848
      4   7   0   6        -0.0092918854
      7   4   6   0        -0.0092918854
      4   6  14   2        -0.0092804947
      6   4   2  14        -0.0092804947
      4   6  16  17        -0.0092601758
      6   4  17  16        -0.0092601758
      3   7   4  10        -0.0092440504
      7   3  10   4        -0.0092440504
      5   5  16  16        -0.0092251207
      4   6   5  17        -0.0092248317
      6   4  17   5        -0.0092248317
      6   6  15  15        -0.0092182856
      3   7   2   9        -0.0091931687
      7   3   9   2        -0.0091931687
      3   4   0  19         0.0091745898
      4   3  19   0         0.0091745898
      4   4  15  15        -0.0091666881
      4   7   0  17        -0.0090956226
      7   4  17   0        -0.0090956226
      4   6   2  14        -0.0090708918
      6   4  14   2        -0.0090708918
      3   3   2   2        -0.0090677807
      4   5   7   4         0.0090426746
      5   4   4   7         0.0090426746
      3   5   0  17        -0.0090172546
      5   3  17   0        -0.0090172546
      3   3   3  14        -0.0089880216
      3   3  14   3        -0.0089880216
      2   5  12  12        -0.0089829748
      5   2  12  12        -0.0089829748
      4   4  19  19        -0.0089711571
      6   7   5   0        -0.0089633174
      7   6   0   5        -0.0089633174
      4   5   8  12        -0.0089056136
      5   4  12   8        -0.0089056136
      2   6   0  19         0.0088792920
      6   2  19   0         0.0088792920
      4   4   5  16        -0.0088759800
      4   4  16   5        -0.0088759800
      6   6   6   9         0.0088709760
      6   6   9   6         0.0088709760
      4   6  19  18        -0.0088278064
      6   4  18  19        -0.0088278064
      6   6   5  10        -0.0088228367
      6   6  10   5        -0.0088228367
      2   2   5   5        -0.0087777011
      3   5   0   6        -0.0087673056
      5   3   6   0        -0.0087673056
      2   2  12  13        -0.0086548695
      2   2  13  12        -0.0086548695
      4   6  14  15        -0.0086538725
      6   4  15  14        -0.0086538725
      4   6  15  14        -0.0086091136
      6   4  14  15        -0.0086091136
      5   5  17  17        -0.0086012150
      3   4   4   9         0.0084914378
      4   3   9   4         0.0084914378
      2   7   0  23        -0.0084857780
      7   2  23   0        -0.0084857780
      6   6  19  19        -0.0084499399
      2   7  10  12        -0.0084470364
      7   2  12  10        -0.0084470364
      2   2   0  10        -0.0084368064
      2   2  10   0        -0.0084368064
      4   7   2  11        -0.0083749332
      7   4  11   2        -0.0083749332
      2   4  13   9         0.0083574070
      4   2   9  13         0.0083574070
      3   3  13  13        -0.0083546531
      5   5  20  20        -0.0083281483
      5   5  22  22        -0.0082640158
      4   6   7   8        -0.0082424161
      6   4   8   7        -0.0082424161
      2   5  11   4         0.0082339531
      5   2   4  11         0.0082339531
      4   5   3   5         0.0082201229
      5   4   5   3         0.0082201229
      5   5   2   2        -0.0082015565
      5   6  16  15         0.0081747912
      6   5  15  16         0.0081747912
      3   3   1  13        -0.0081589966
      3   3  13   1        -0.0081589966
      4   6  18  19        -0.0081575775
      6   4  19  18        -0.0081575775
      5   5   6   6        -0.0081513745
      6   7   8   9        -0.0080757896
      7   6   9   8        -0.0080757896
      6   6   8   8        -0.0080521794
      2   2  10  10        -0.0080503728
      4   4  17  17        -0.0080315716
      2   5   3   4         0.0080183691
      5   2   4   3         0.0080183691
      6   6  16  16        -0.0079584755
      3   5  11  12        -0.0079486252
      5   3  12  11        -0.0079486252
      3   5   0  20         0.0079311561
      5   3  20   0         0.0079311561
      3   4   0  15         0.0079021482
      4   3  15   0         0.0079021482
      4   5   2   6         0.0078991419
      5   4   6   2         0.0078991419
      5   5   1   1        -0.0078982716
      2   7  10   1        -0.0078864442
      7   2   1  10        -0.0078864442
      3   5   4   1         0.0078770105
      5   3   1   4         0.0078770105
      5   5   2  12         0.0078742087
      5   5  12   2         0.0078742087
      4   5  15  17         0.0078437029
      5   4  17  15         0.0078437029
      3   3   0  10        -0.0078013115
      3   3  10   0        -0.0078013115
      3   7   9   1        -0.0077742981
      7   3   1   9        -0.0077742981
      3   6   4   5        -0.0077585950
      6   3   5   4        -0.0077585950
      2   7  11   9        -0.0077154893
      7   2   9  11        -0.0077154893
      2   2   6   6        -0.0077119789
      2   6  13  10        -0.0077096827
      6   2  10  13        -0.0077096827
      3   3   3   4        -0.0076991243
      3   3   4   3        -0.0076991243
      5   6   4   9        -0.0076515606
      6   5   9   4        -0.0076515606
      6   7  21   0        -0.0076505998
      7   6   0  21        -0.0076505998
      4   4   5   7        -0.0076335019
      4   4   7   5        -0.0076335019
      3   6   4  10        -0.0075636233
      6   3  10   4        -0.0075636233
      4   4   3  14        -0.0075480814
      4   4  14   3        -0.0075480814
      2   6   1  10        -0.0075364488
      6   2  10   1        -0.0075364488
      5   5   5  16        -0.0075220679
      5   5  16   5        -0.0075220679
      2   4   1   9         0.0074794227
      4   2   9   1         0.0074794227
      4   4   2  15        -0.0074716542
      4   4  15   2        -0.0074716542
      6   6   2  15        -0.0074485653
      6   6  15   2        -0.0074485653
      4   6  17  16        -0.0074390216
      6   4  16  17        -0.0074390216
      3   5   2  14         0.0074345653
      5   3  14   2         0.0074345653
      2   3   0   9        -0.0074300484
      3   2   9   0        -0.0074300484
      6   7   6   6        -0.0074220704
      7   6   6   6        -0.0074220704
      3   5   0   8         0.0074121203
      5   3   8   0         0.0074121203
      5   5  14  14        -0.0073804654
      3   3  15  15        -0.0073719751
      5   5  21  21        -0.0073542243
      2   6   3   6        -0.0073143460
      6   2   6   3        -0.0073143460
      3   5  14   2         0.0073051650
      5   3   2  14         0.0073051650
      4   6   6  10        -0.0073028243
      6   4  10   6        -0.0073028243
      4   6   0  17         0.0072747504
      6   4  17   0         0.0072747504
      2   5  12  27        -0.0072479023
      5   2  27  12        -0.0072479023
      3   5  14  12        -0.0072370663
      5   3  12  14        -0.0072370663
      4   4   0  16         0.0072137183
      4   4  16   0         0.0072137183
      2   2  11  11        -0.0071615577
      2   6  13   5        -0.0071558897
      6   2   5  13        -0.0071558897
      3   3   9   9        -0.0071511830
      6   6   3  14        -0.0071478241
      6   6  14   3        -0.0071478241
      3   4   4   6        -0.0071327201
      4   3   6   4        -0.0071327201
      4   7   5  20         0.0070928231
      7   4  20   5         0.0070928231
      6   6   6  17        -0.0070910484
      6   6  17   6        -0.0070910484
      2   5  12  13        -0.0070534835
      5   2  13  12        -0.0070534835
      4   6   9  10         0.0070514041
      6   4  10   9         0.0070514041
      3   4   1   7        -0.0070502250
      4   3   7   1        -0.0070502250
      5   5   3  14        -0.0070243999
      5   5  14   3        -0.0070243999
      3   3  10  10        -0.0070236668
      5   6  16   2         0.0069899492
      6   5   2  16         0.0069899492
      4   6   8   0        -0.0069867689
      6   4   0   8        -0.0069867689
      4   5   5  22         0.0069435899
      5   4  22   5         0.0069435899
      5   5   0   5         0.0069285852
      5   5   5   0         0.0069285852
      5   6  20  18        -0.0069131654
      6   5  18  20        -0.0069131654
      4   5   6  12        -0.0068721221
      5   4  12   6        -0.0068721221
      4   5  14   0        -0.0068677012
      5   4   0  14        -0.0068677012
      2   2   1  13        -0.0068570261
      2   2  13   1        -0.0068570261
      3   5  14  15         0.0068202968
      5   3  15  14         0.0068202968
      7   7   1   2        -0.0068139674
      7   7   2   1        -0.0068139674
      5   7   1   5        -0.0068052098
      7   5   5   1        -0.0068052098
      4   5   2  17         0.0067843498
      5   4  17   2         0.0067843498
      2   4  11   7        -0.0067840667
      4   2   7  11        -0.0067840667
      7   7   3   3        -0.0067769250
      3   5   2   4         0.0067600178
      5   3   4   2         0.0067600178
      5   7   3   9         0.0067588801
      7   5   9   3         0.0067588801
      4   7   0  20        -0.0067532020
      7   4  20   0        -0.0067532020
      3   6   1   9         0.0067529021
      6   3   9   1         0.0067529021
      6   7   7   0        -0.0067441868
      7   6   0   7        -0.0067441868
      3   3   5   5        -0.0067200973
      4   6  17   0         0.0067143853
      6   4   0  17         0.0067143853
      4   5  14  16         0.0067042458
      5   4  16  14         0.0067042458
      2   7  10   2        -0.0066899465
      7   2   2  10        -0.0066899465
      5   5  11  11        -0.0066810713
      5   7  12  16        -0.0066476101
      7   5  16  12        -0.0066476101
      3   3  19  19        -0.0066240030
      3   7   9   2        -0.0066167299
      7   3   2   9        -0.0066167299
      3   5  15  14         0.0066152703
      5   3  14  15         0.0066152703
      5   7   4   6         0.0066114154
      7   5   6   4         0.0066114154
      5   7  15   0         0.0066039974
      7   5   0  15         0.0066039974
      6   6  11  11        -0.0065961679
      4   6   0   6         0.0065869340
      6   4   6   0         0.0065869340
      2   4  13   6        -0.0065601795
      4   2   6  13        -0.0065601795
      2   6  12  10        -0.0065584653
      6   2  10  12        -0.0065584653
      3   6  16  14        -0.0065575420
      6   3  14  16        -0.0065575420
      4   7   6  10        -0.0065537714
      7   4  10   6        -0.0065537714
      4   7   2   3         0.0065467721
      7   4   3   2         0.0065467721
      5   6   5  15         0.0065314659
      6   5  15   5         0.0065314659
      2   4  12   9         0.0065286315
      4   2   9  12         0.0065286315
      2   4   3   5        -0.0065285930
      4   2   5   3        -0.0065285930
      2   7  15   0        -0.0065209883
      7   2   0  15        -0.0065209883
      2   2   1  12        -0.0064721554
      2   2  12   1        -0.0064721554
      4   5   0   4        -0.0064682700
      5   4   4   0        -0.0064682700
      3   5  12  22         0.0064672149
      5   3  22  12         0.0064672149
      4   6  17   5        -0.0064579549
      6   4   5  17        -0.0064579549
      5   6  17  14         0.0064568775
      6   5  14  17         0.0064568775
      2   7  23   0        -0.0064440541
      7   2   0  23        -0.0064440541
      3   3  17  17        -0.0064382123
      3   4   5  13        -0.0064362661
      4   3  13   5        -0.0064362661
      4   4  11  11        -0.0064062382
      4   6  16   6        -0.0063930925
      6   4   6  16        -0.0063930925
      3   4  17  14        -0.0063877636
      4   3  14  17        -0.0063877636
      6   6   1   1        -0.0063860737
      4   5  18  21         0.0063816537
      5   4  21  18         0.0063816537
      6   6   7   7        -0.0063801762
      3   6   5   3        -0.0063794218
      6   3   3   5        -0.0063794218
      3   7  10   3        -0.0063793340
      7   3   3  10        -0.0063793340
      4   5  14   5         0.0063768371
      5   4   5  14         0.0063768371
      6   7   7  10        -0.0063393075
      7   6  10   7        -0.0063393075
      2   5  27  12        -0.0063289532
      5   2  12  27        -0.0063289532
      3   6  18   0         0.0063248016
      6   3   0  18         0.0063248016
      7   7   6   6        -0.0063102184
      6   6   5  16        -0.0063068781
      6   6  16   5        -0.0063068781
      4   6  10   6        -0.0062826792
      6   4   6  10        -0.0062826792
      5   5   0  16         0.0062826516
      5   5  16   0         0.0062826516
      5   6   0   2        -0.0062770402
      6   5   2   0        -0.0062770402
      3   3  18  18        -0.0062706952
      2   3   1   4        -0.0062615534
      3   2   4   1        -0.0062615534
      4   5   3   0        -0.0062581479
      5   4   0   3        -0.0062581479
      2   2   1   1        -0.0062577647
      2   2  16  16        -0.0062558766
      3   7   0  22        -0.0062336564
      7   3  22   0        -0.0062336564
      2   6  11   6        -0.0062276845
      6   2   6  11        -0.0062276845
      2   7  10  13        -0.0062081644
      7   2  13  10        -0.0062081644
      2   4  18   0         0.0062050819
      4   2   0  18         0.0062050819
      3   6   2   6        -0.0062020466
      6   3   6   2        -0.0062020466
      3   4   3   9         0.0062012263
      4   3   9   3         0.0062012263
      3   4   2   5        -0.0061995219
      4   3   5   2        -0.0061995219
      4   4   1   1        -0.0061811773
      2   4   3   7        -0.0061764552
      4   2   7   3        -0.0061764552
      6   7   3  11        -0.0061611690
      7   6  11   3        -0.0061611690
      3   3   2  15        -0.0061559203
      3   3  15   2        -0.0061559203
      7   7   6   9        -0.0061439425
      7   7   9   6        -0.0061439425
      2   2  18  18        -0.0061234264
      2   3   3   2        -0.0061223104
      3   2   2   3        -0.0061223104
      4   7  18  12         0.0061171002
      7   4  12  18         0.0061171002
      5   7   5  12         0.0061126480
      7   5  12   5         0.0061126480
      7   7   0  28        -0.0061070989
      7   7  28   0        -0.0061070989
      2   2   5  16        -0.0061019670
      2   2  16   5        -0.0061019670
      4   7  17   0        -0.0060822245
      7   4   0  17        -0.0060822245
      5   6  13   0        -0.0060791842
      6   5   0  13        -0.0060791842
      3   3  16  16        -0.0060553254
      6   7   0   7         0.0060525948
      7   6   7   0         0.0060525948
      3   4  19   0         0.0060515708
      4   3   0  19         0.0060515708
      2   2   9   9        -0.0060469448
      6   6   9   9        -0.0060415085
      3   3   0  21         0.0060022620
      3   3  21   0         0.0060022620
      3   3  11  11        -0.0059841495
      3   4   5   1        -0.0059707356
      4   3   1   5        -0.0059707356
      3   6   3  10        -0.0059626010
      6   3  10   3        -0.0059626010
      2   2  17  17        -0.0059608728
      6   6   7  10        -0.0059530221
      6   6  10   7        -0.0059530221
      2   6   1   5        -0.0059475041
      6   2   5   1        -0.0059475041
      3   6   6   1        -0.0059317198
      6   3   1   6        -0.0059317198
      4   6  11  15         0.0059240803
      6   4  15  11         0.0059240803
      3   6   6  13        -0.0059110046
      6   3  13   6        -0.0059110046
      4   5  16  11        -0.0059079950
      5   4  11  16        -0.0059079950
      4   7   8  10        -0.0058968437
      7   4  10   8        -0.0058968437
      4   4  13  13        -0.0058907008
      6   6  13  13        -0.0058818017
      2   4   1   6        -0.0058812957
      4   2   6   1        -0.0058812957
      5   5   4  22        -0.0058777702
      5   5  22   4        -0.0058777702
      7   7  18  18        -0.0058635722
      7   7   4   4        -0.0058545786
      4   5  19  20        -0.0058439875
      5   4  20  19        -0.0058439875
      4   7   2   4         0.0058415684
      7   4   4   2         0.0058415684
      5   6   6   3         0.0058400150
      6   5   3   6         0.0058400150
      2   3  13   4        -0.0058360314
      3   2   4  13        -0.0058360314
      4   6  15  11         0.0058340072
      6   4  11  15         0.0058340072
      3   5   8   0         0.0058257921
      5   3   0   8         0.0058257921
      5   6  11  17        -0.0058167534
      6   5  17  11        -0.0058167534
      3   3   6   6        -0.0058039405
      3   4   3   6        -0.0057952064
      4   3   6   3        -0.0057952064
      5   5  13  13        -0.0057736125
      3   3   4  14        -0.0057625045
      3   3  14   4        -0.0057625045
      2   5   0   5         0.0057602733
      5   2   5   0         0.0057602733
      3   5  12  14        -0.0057527639
      5   3  14  12        -0.0057527639
      2   6   1   0        -0.0057442965
      6   2   0   1        -0.0057442965
      3   7   4   5         0.0057259429
      7   3   5   4         0.0057259429
      4   6   8   7        -0.0057219241
      6   4   7   8        -0.0057219241
      3   4  13   7        -0.0057157078
      4   3   7  13        -0.0057157078
      3   6   5   4        -0.0057110735
      6   3   4   5        -0.0057110735
      3   5  17   0        -0.0057029508
      5   3   0  17        -0.0057029508
      3   4  16  15        -0.0057020739
      4   3  15  16        -0.0057020739
      3   6   3   5        -0.0056900760
      6   3   5   3        -0.0056900760
      2   3  18  19        -0.0056831411
      3   2  19  18        -0.0056831411
      6   6   0   7        -0.0056821801
      6   6   7   0        -0.0056821801
      2   3   2   3        -0.0056721991
      3   2   3   2        -0.0056721991
      3   7  14  10        -0.0056590162
      7   3  10  14        -0.0056590162
      6   6   6   8        -0.0056586184
      6   6   8   6        -0.0056586184
      7   7   0  16        -0.0056580049
      7   7  16   0        -0.0056580049
      5   7  16  19         0.0056563270
      7   5  19  16         0.0056563270
      2   3   3  13        -0.0056482897
      3   2  13   3        -0.0056482897
      4   7  18  19         0.0056390588
      7   4  19  18         0.0056390588
      4   7   9   7        -0.0056359648
      7   4   7   9        -0.0056359648
      3   3   2  12         0.0056320932
      3   3  12   2         0.0056320932
      6   7  17  20         0.0056172938
      7   6  20  17         0.0056172938
      5   6   4   8         0.0055958463
      6   5   8   4         0.0055958463
      2   7   2  10        -0.0055933616
      7   2  10   2        -0.0055933616
      2   6   5   1        -0.0055855625
      6   2   1   5        -0.0055855625
      4   7  16  20         0.0055849998
      7   4  20  16         0.0055849998
      2   5  21   0        -0.0055829501
      5   2   0  21        -0.0055829501
      7   7  13  13        -0.0055713407
      5   6   1   5         0.0055561956
      6   5   5   1         0.0055561956
      2   6  11   8        -0.0055414317
      6   2   8  11        -0.0055414317
      3   4   3  24        -0.0055396994
      4   3  24   3        -0.0055396994
      5   7  10  12        -0.0055371561
      7   5  12  10        -0.0055371561
      2   6   5  13        -0.0055366906
      6   2  13   5        -0.0055366906
      3   3  22  22        -0.0055292029
      6   6  12  12        -0.0055258058
      3   6  17  15        -0.0055191441
      6   3  15  17        -0.0055191441
      3   4   5   2        -0.0055183070
      4   3   2   5        -0.0055183070
      3   7  12  20         0.0055181417
      7   3  20  12         0.0055181417
      7   7   1  12        -0.0054704704
      7   7  12   1        -0.0054704704
      3   5   3  15         0.0054686131
      5   3  15   3         0.0054686131
      2   3   9   0        -0.0054666708
      3   2   0   9        -0.0054666708
      4   4  12  12        -0.0054594245
      5   5  27  27        -0.0054580985
      2   3   3   1        -0.0054154187
      3   2   1   3        -0.0054154187
      2   7  14   9        -0.0054148107
      7   2   9  14        -0.0054148107
      3   3  20  20        -0.0054141188
      5   5  15  15        -0.0054125327
      7   7   2  12        -0.0054014228
      7   7  12   2        -0.0054014228
      5   7   9   4         0.0053993314
      7   5   4   9         0.0053993314
      7   7  19  19        -0.0053971849
      6   6  23  23        -0.0053954017
      2   6  12   0        -0.0053903436
      6   2   0  12        -0.0053903436
      5   6  22   6         0.0053893326
      6   5   6  22         0.0053893326
      7   7   7   7        -0.0053865997
      5   7   5  19         0.0053809030
      7   5  19   5         0.0053809030
      2   3   6  10        -0.0053748823
      3   2  10   6        -0.0053748823
      2   2  20  20        -0.0053686489
      5   6  12   5        -0.0053659590
      6   5   5  12        -0.0053659590
      5   5   6  17        -0.0053385523
      5   5  17   6        -0.0053385523
      4   4   8   8        -0.0053382863
      4   7   2  14         0.0053276270
      7   4  14   2         0.0053276270
      3   7   9  13        -0.0053192706
      7   3  13   9        -0.0053192706
      3   4   9   4         0.0053008026
      4   3   4   9         0.0053008026
      5   7   6  11         0.0052925903
      7   5  11   6         0.0052925903
      3   6  12  17        -0.0052823506
      6   3  17  12        -0.0052823506
      4   6   6   7        -0.0052782989
      6   4   7   6        -0.0052782989
      2   4   9   1         0.0052749977
      4   2   1   9         0.0052749977
      2   6  12   5        -0.0052739097
      6   2   5  12        -0.0052739097
      5   5   2  15        -0.0052664914
      5   5  15   2        -0.0052664914
      3   7  10  14        -0.0052641390
      7   3  14  10        -0.0052641390
      4   5   2   9        -0.0052584417
      5   4   9   2        -0.0052584417
      3   5  10  20         0.0052553696
      5   3  20  10         0.0052553696
      2   2   0   5         0.0052523848
      2   2   5   0         0.0052523848
      2   2  21  21        -0.0052495758
      3   6   3  25         0.0052389000
      6   3  25   3         0.0052389000
      2   3   0  17         0.0052369404
      3   2  17   0         0.0052369404
      4   4  24  24        -0.0052253157
      4   4  23  23        -0.0052141190
      2   7   0  27         0.0052081259
      7   2  27   0         0.0052081259
      2   5   3   3         0.0052015973
      5   2   3   3         0.0052015973
      4   5  16  22         0.0051886417
      5   4  22  16         0.0051886417
      2   3   2  14        -0.0051867130
      3   2  14   2        -0.0051867130
      2   3  13   3        -0.0051851722
      3   2   3  13        -0.0051851722
      2   3  14   2        -0.0051751899
      3   2   2  14        -0.0051751899
      6   7   5  10        -0.0051734233
      7   6  10   5        -0.0051734233
      5   7  23   0        -0.0051448635
      7   5   0  23        -0.0051448635
      3   4  12  16        -0.0051418288
      4   3  16  12        -0.0051418288
      3   6   3   7        -0.0051387280
      6   3   7   3        -0.0051387280
      3   6  11   0        -0.0051367537
      6   3   0  11        -0.0051367537
      3   3   2  13        -0.0051234363
      3   3  13   2        -0.0051234363
      2   2   4   4        -0.0051072227
      3   6  12   8         0.0051001129
      6   3   8  12         0.0051001129
      6   6  24  24        -0.0050987648
      4   7   6   5         0.0050961085
      7   4   5   6         0.0050961085
      5   6   2   5         0.0050881186
      6   5   5   2         0.0050881186
      6   6  25  25        -0.0050787220
      3   7  10  26         0.0050785977
      7   3  26  10         0.0050785977
      5   6   0  15        -0.0050785701
      6   5  15   0        -0.0050785701
      3   6  10  18         0.0050751694
      6   3  18  10         0.0050751694
      7   7   2  15        -0.0050701590
      7   7  15   2        -0.0050701590
      6   7   6  20         0.0050613284
      7   6  20   6         0.0050613284
      5   6  22  17         0.0050613254
      6   5  17  22         0.0050613254
      3   3  21  21        -0.0050606349
      3   6  12  24         0.0050585365
      6   3  24  12         0.0050585365
      3   4  14  17        -0.0050559649
      4   3  17  14        -0.0050559649
      7   7  10  16        -0.0050367981
      7   7  16  10        -0.0050367981
      2   5   2   2         0.0050149922
      5   2   2   2         0.0050149922
      2   2   3   3        -0.0050139920
      3   5  15   3         0.0050133889
      5   3   3  15         0.0050133889
      2   3  19  18        -0.0050066991
      3   2  18  19        -0.0050066991
      4   6   3  13        -0.0050056265
      6   4  13   3        -0.0050056265
      4   7   3   2         0.0050019564
      7   4   2   3         0.0050019564
      5   6  15  16         0.0050013616
      6   5  16  15         0.0050013616
      3   6  13   9         0.0050010947
      6   3   9  13         0.0050010947
      3   7  10   4        -0.0049970144
      7   3   4  10        -0.0049970144
      5   5   1  13        -0.0049968655
      5   5  13   1        -0.0049968655
      4   6   9   7         0.0049935317
      6   4   7   9         0.0049935317
      2   5   5  21         0.0049895714
      5   2  21   5         0.0049895714
      3   6  14  16        -0.0049884862
      6   3  16  14        -0.0049884862
      2   7   6  18         0.0049883500
      7   2  18   6         0.0049883500
      5   7  22  20        -0.0049830721
      7   5  20  22        -0.0049830721
      5   7  21   2        -0.0049783333
      7   5   2  21        -0.0049783333
      5   5  11  22         0.0049778556
      5   5  22  11         0.0049778556
      2   2   6  17        -0.0049768051
      2   2  17   6        -0.0049768051
      5   7   0  23        -0.0049606985
      7   5  23   0        -0.0049606985
      3   6   0  14         0.0049530724
      6   3  14   0         0.0049530724
      2   6  19   0         0.0049505702
      6   2   0  19         0.0049505702
      4   5  17  15         0.0049336442
      5   4  15  17         0.0049336442
      2   2  22  22        -0.0049298519
      4   4  22  22        -0.0049290270
      3   4   9   3         0.0049222472
      4   3   3   9         0.0049222472
      4   4   4   4        -0.0049113278
      2   4   9  13         0.0049111907
      4   2  13   9         0.0049111907
      2   3   5   9         0.0049078432
      3   2   9   5         0.0049078432
      2   7  11   6        -0.0049064463
      7   2   6  11        -0.0049064463
      3   4   6   4        -0.0049058348
      4   3   4   6        -0.0049058348
      2   5   5  16        -0.0049003980
      5   2  16   5        -0.0049003980
      6   6  22  22        -0.0048944156
      3   3  24  24        -0.0048914196
      4   4   9  17         0.0048900819
      4   4  17   9         0.0048900819
      3   4  12   7         0.0048783996
      4   3   7  12         0.0048783996
      4   5  18   5        -0.0048612835
      5   4   5  18        -0.0048612835
      6   6   4   4        -0.0048593353
      3   6  14   5        -0.0048586861
      6   3   5  14        -0.0048586861
      3   4   6   3        -0.0048552342
      4   3   3   6        -0.0048552342
      4   5  11  16        -0.0048496995
      5   4  16  11        -0.0048496995
      3   6   2  24        -0.0048318059
      6   3  24   2        -0.0048318059
      2   5   4  11         0.0048311219
      5   2  11   4         0.0048311219
      4   6  13   3        -0.0048274175
      6   4   3  13        -0.0048274175
      2   6  10   1        -0.0048265456
      6   2   1  10        -0.0048265456
      6   7  18  11        -0.0048220242
      7   6  11  18        -0.0048220242
      2   5  14   4         0.0048081783
      5   2   4  14         0.0048081783
      3   5   9  21        -0.0048068932
      5   3  21   9        -0.0048068932
      7   7   1  13        -0.0048060819
      7   7  13   1        -0.0048060819
      3   5   4   2         0.0048004047
      5   3   2   4         0.0048004047
      2   6   5  12        -0.0047924479
      6   2  12   5        -0.0047924479
      4   4  11  14         0.0047864368
      4   4  14  11         0.0047864368
      4   6  24  25         0.0047837637
      6   4  25  24         0.0047837637
      6   6  11  14         0.0047815095
      6   6  14  11         0.0047815095
      2   4  11   5        -0.0047733346
      4   2   5  11        -0.0047733346
      4   4   6  17        -0.0047701642
      4   4  17   6        -0.0047701642
      2   4   6   1        -0.0047695480
      4   2   1   6        -0.0047695480
      3   3  25  25        -0.0047659328
      4   7  17   5         0.0047587042
      7   4   5  17         0.0047587042
      6   6   2  13        -0.0047568386
      6   6  13   2        -0.0047568386
      2   4  12   6        -0.0047514023
      4   2   6  12        -0.0047514023
      6   7  14  11        -0.0047509595
      7   6  11  14        -0.0047509595
      3   6  10   4        -0.0047456934
      6   3   4  10        -0.0047456934
      3   4  12  25        -0.0047409787
      4   3  25  12        -0.0047409787
      4   7  18   1         0.0047397183
      7   4   1  18         0.0047397183
      3   7   3   7         0.0047344074
      7   3   7   3         0.0047344074
      6   7   0  21        -0.0047320015
      7   6  21   0        -0.0047320015
      5   7  13   0        -0.0047319782
      7   5   0  13        -0.0047319782
      2   7  10  23        -0.0047270359
      7   2  23  10        -0.0047270359
      4   6   3  15        -0.0047187930
      6   4  15   3        -0.0047187930
      5   6   3  24         0.0047134861
      6   5  24   3         0.0047134861
      3   6   4   7        -0.0047057677
      6   3   7   4        -0.0047057677
      2   3  14  15        -0.0047001002
      3   2  15  14        -0.0047001002
      3   4  15   0         0.0046972055
      4   3   0  15         0.0046972055
      3   6  16  11         0.0046908282
      6   3  11  16         0.0046908282
      3   6  20  19         0.0046826890
      6   3  19  20         0.0046826890
      2   6  10  19         0.0046761081
      6   2  19  10         0.0046761081
      2   6   5  23         0.0046671811
      6   2  23   5         0.0046671811
      5   5  12  15         0.0046666296
      5   5  15  12         0.0046666296
      2   4   6  13        -0.0046658596
      4   2  13   6        -0.0046658596
      2   5   6  20         0.0046632694
      5   2  20   6         0.0046632694
      5   7  17  18         0.0046588722
      7   5  18  17         0.0046588722
      4   6  25  24         0.0046469212
      6   4  24  25         0.0046469212
      1   1  42  42        -0.0046420941
      1   1  43  43        -0.0046406889
      0   1  42  43        -0.0046393137
      1   0  43  42        -0.0046393137
      0   1  43  42        -0.0046392515
      1   0  42  43        -0.0046392515
      0   0  42  42        -0.0046387478
      0   0  43  43        -0.0046374194
      3   7  26   0         0.0046290790
      7   3   0  26         0.0046290790
      2   4  12  17        -0.0046289958
      4   2  17  12        -0.0046289958
      4   7  15  11        -0.0046210476
      7   4  11  15        -0.0046210476
      4   4  25  25        -0.0046194296
      6   6   1  13        -0.0046193532
      6   6  13   1        -0.0046193532
      2   3  12  22        -0.0046149619
      3   2  22  12        -0.0046149619
      4   6   4   1        -0.0046143487
      6   4   1   4        -0.0046143487
      2   7   5   1         0.0046092708
      7   2   1   5         0.0046092708
      2   6  13   7        -0.0046032178
      6   2   7  13        -0.0046032178
[...]
      4   7  43  37        -0.0000009212
      7   4  37  43        -0.0000009212
      1   1  30  34        -0.0000009115
      1   1  34  30        -0.0000009115
      5   7  43  38         0.0000009073
      7   5  38  43         0.0000009073
      0   0  19  36        -0.0000009070
      0   0  36  19        -0.0000009070
      0   4  43  29         0.0000009041
      4   0  29  43         0.0000009041
      1   7  16  37         0.0000009002
      7   1  37  16         0.0000009002
      0   6  28  27         0.0000008987
      6   0  27  28         0.0000008987
      3   3  31  43         0.0000008961
      3   3  43  31         0.0000008961
      1   2   8  25        -0.0000008926
      2   1  25   8        -0.0000008926
      0   0  30  34        -0.0000008882
      0   0  34  30        -0.0000008882
      1   5  19   3         0.0000008862
      5   1   3  19         0.0000008862
      0   6  19   7        -0.0000008745
      6   0   7  19        -0.0000008745
      0   2  18  42         0.0000008729
      2   0  42  18         0.0000008729
      0   1  19  26        -0.0000008726
      1   0  26  19        -0.0000008726
      1   1  18  18        -0.0000008713
      0   4  18  16        -0.0000008655
      4   0  16  18        -0.0000008655
      1   4  19  16        -0.0000008653
      4   1  16  19        -0.0000008653
      1   2  18  13         0.0000008599
      2   1  13  18         0.0000008599
      4   7  34  13        -0.0000008576
      7   4  13  34        -0.0000008576
      2   4  32  42         0.0000008570
      4   2  42  32         0.0000008570
      0   7  20  26        -0.0000008535
      7   0  26  20        -0.0000008535
      1   2  15  18        -0.0000008498
      2   1  18  15        -0.0000008498
      2   2  19  43         0.0000008468
      2   2  43  19         0.0000008468
      1   1  19  36        -0.0000008466
      1   1  36  19        -0.0000008466
      0   4  42  28        -0.0000008402
      4   0  28  42        -0.0000008402
      0   4  43   9        -0.0000008305
      4   0   9  43        -0.0000008305
      1   7   8  43         0.0000008236
      7   1  43   8         0.0000008236
      1   2  43  18         0.0000008147
      2   1  18  43         0.0000008147
      1   6  42  21         0.0000008039
      6   1  21  42         0.0000008039
      0   4  43   8        -0.0000008033
      4   0   8  43        -0.0000008033
      5   6  42  24        -0.0000007986
      6   5  24  42        -0.0000007986
      0   5  19  15        -0.0000007919
      5   0  15  19        -0.0000007919
      0   6  26  29         0.0000007585
      6   0  29  26         0.0000007585
      0   5  43  15         0.0000007577
      5   0  15  43         0.0000007577
      0   5  42  30        -0.0000007562
      5   0  30  42        -0.0000007562
      5   5  18  42        -0.0000007543
      5   5  42  18        -0.0000007543
      1   7  43  24         0.0000007542
      7   1  24  43         0.0000007542
      0   7  28  31        -0.0000007516
      7   0  31  28        -0.0000007516
      4   7  42   2        -0.0000007513
      7   4   2  42        -0.0000007513
      1   7   8  36        -0.0000007492
      7   1  36   8        -0.0000007492
      3   3  30  42        -0.0000007479
      3   3  42  30        -0.0000007479
      0   5  19   2         0.0000007412
      5   0   2  19         0.0000007412
      0   3  12  18         0.0000007385
      3   0  18  12         0.0000007385
      0   1   4  19         0.0000007359
      1   0  19   4         0.0000007359
      1   3   2  35        -0.0000007297
      3   1  35   2        -0.0000007297
      6   7  27  43         0.0000007249
      7   6  43  27         0.0000007249
      0   1   6  25         0.0000007222
      1   0  25   6         0.0000007222
      4   5  43  20        -0.0000007207
      5   4  20  43        -0.0000007207
      0   6  43   7        -0.0000007163
      6   0   7  43        -0.0000007163
      1   6  40  28        -0.0000007140
      6   1  28  40        -0.0000007140
      1   3  26  34        -0.0000007131
      3   1  34  26        -0.0000007131
      0   2  42  18         0.0000007107
      2   0  18  42         0.0000007107
      1   6  18  38        -0.0000007078
      6   1  38  18        -0.0000007078
      0   1  22  31        -0.0000007065
      1   0  31  22        -0.0000007065
      1   5  18  15        -0.0000007029
      5   1  15  18        -0.0000007029
      0   6  42   6        -0.0000007023
      6   0   6  42        -0.0000007023
      2   3  42  19        -0.0000007007
      3   2  19  42        -0.0000007007
      0   4  42   7        -0.0000006972
      4   0   7  42        -0.0000006972
      0   4  30  28         0.0000006961
      4   0  28  30         0.0000006961
      0   7   8  42         0.0000006896
      7   0  42   8         0.0000006896
      1   7  42  28        -0.0000006870
      7   1  28  42        -0.0000006870
      1   2  19  11        -0.0000006791
      2   1  11  19        -0.0000006791
      0   6  31   5         0.0000006768
      6   0   5  31         0.0000006768
      1   7  18  28        -0.0000006669
      7   1  28  18        -0.0000006669
      1   7  43  39         0.0000006649
      7   1  39  43         0.0000006649
      0   3   2  11        -0.0000006614
      3   0  11   2        -0.0000006614
      1   6  29  36        -0.0000006518
      6   1  36  29        -0.0000006518
      1   5  19  42         0.0000006398
      5   1  42  19         0.0000006398
      1   5   1  18         0.0000006290
      5   1  18   1         0.0000006290
      1   7  24  27        -0.0000006219
      7   1  27  24        -0.0000006219
      3   5  40  13        -0.0000006170
      5   3  13  40        -0.0000006170
      3   5  43  18        -0.0000006098
      5   3  18  43        -0.0000006098
      3   5  42   2        -0.0000006052
      5   3   2  42        -0.0000006052
      4   5  25  42         0.0000005939
      5   4  42  25         0.0000005939
      1   5  22   1        -0.0000005925
      5   1   1  22        -0.0000005925
      0   6  42  29         0.0000005889
      6   0  29  42         0.0000005889
      0   1  15  18        -0.0000005886
      1   0  18  15        -0.0000005886
      1   1  18  22         0.0000005845
      1   1  22  18         0.0000005845
      1   3  26   3        -0.0000005724
      3   1   3  26        -0.0000005724
      0   6  15   7         0.0000005691
      6   0   7  15         0.0000005691
      3   3  26  42         0.0000005550
      3   3  42  26         0.0000005550
      0   4  42  10         0.0000005535
      4   0  10  42         0.0000005535
      0   2  19   2         0.0000005530
      2   0   2  19         0.0000005530
      1   7  43  33        -0.0000005487
      7   1  33  43        -0.0000005487
      4   5   7  42         0.0000005466
      5   4  42   7         0.0000005466
      1   7  20  35        -0.0000005427
      7   1  35  20        -0.0000005427
      0   2  23  31         0.0000005316
      2   0  31  23         0.0000005316
      0   1  19   4         0.0000005303
      1   0   4  19         0.0000005303
      1   5  43  30         0.0000005294
      5   1  30  43         0.0000005294
      0   3   4  31         0.0000005254
      3   0  31   4         0.0000005254
      0   2  20  24         0.0000005149
      2   0  24  20         0.0000005149
      0   3   4  41        -0.0000005083
      3   0  41   4        -0.0000005083
      0   7  11  39         0.0000005056
      7   0  39  11         0.0000005056
      0   4  42   5         0.0000005052
      4   0   5  42         0.0000005052
      1   6  18   5        -0.0000005043
      6   1   5  18        -0.0000005043
      5   7  42  24        -0.0000004980
      7   5  24  42        -0.0000004980
      0   1  18  15        -0.0000004957
      1   0  15  18        -0.0000004957
      0   3  18  15        -0.0000004955
      3   0  15  18        -0.0000004955
      0   7  39  22        -0.0000004923
      7   0  22  39        -0.0000004923
      3   5  18  43        -0.0000004837
      5   3  43  18        -0.0000004837
      1   3  18  37         0.0000004734
      3   1  37  18         0.0000004734
      0   5  30  18        -0.0000004720
      5   0  18  30        -0.0000004720
      7   7  34  40        -0.0000004642
      7   7  40  34        -0.0000004642
      1   1  19  19        -0.0000004583
      1   4   3   8        -0.0000004581
      4   1   8   3        -0.0000004581
      0   3  16  24         0.0000004530
      3   0  24  16         0.0000004530
      1   3  11  18        -0.0000004528
      3   1  18  11        -0.0000004528
      0   3  43  18         0.0000004500
      3   0  18  43         0.0000004500
      1   6  19  33         0.0000004431
      6   1  33  19         0.0000004431
      1   7  41   8        -0.0000004407
      7   1   8  41        -0.0000004407
      0   0  19  19        -0.0000004371
      0   3   3   2         0.0000004368
      3   0   2   3         0.0000004368
      1   3  22  18        -0.0000004327
      3   1  18  22        -0.0000004327
      1   5  35  37         0.0000004313
      5   1  37  35         0.0000004313
      1   6  25  42        -0.0000004304
      6   1  42  25        -0.0000004304
      1   2  19   3        -0.0000004201
      2   1   3  19        -0.0000004201
      1   5  30  15         0.0000004189
      5   1  15  30         0.0000004189
      1   4  26   9         0.0000004166
      4   1   9  26         0.0000004166
      1   3   4  18         0.0000004158
      3   1  18   4         0.0000004158
      0   3  15  26         0.0000004151
      3   0  26  15         0.0000004151
      0   4  42  21        -0.0000004123
      4   0  21  42        -0.0000004123
      5   6  40  17        -0.0000004120
      6   5  17  40        -0.0000004120
      0   5  19  43         0.0000004059
      5   0  43  19         0.0000004059
      0   1  20   0         0.0000004026
      1   0   0  20         0.0000004026
      1   2  35  18        -0.0000003985
      2   1  18  35        -0.0000003985
      0   4  27   6         0.0000003978
      4   0   6  27         0.0000003978
      2   2  31  43         0.0000003956
      2   2  43  31         0.0000003956
      0   2  19  35        -0.0000003939
      2   0  35  19        -0.0000003939
      0   0   7  10         0.0000003928
      0   0  10   7         0.0000003928
      1   6  42   5         0.0000003902
      6   1   5  42         0.0000003902
      1   5  19  37        -0.0000003753
      5   1  37  19        -0.0000003753
      0   5  11  30         0.0000003727
      5   0  30  11         0.0000003727
      0   0  18  22         0.0000003631
      0   0  22  18         0.0000003631
      1   2   1  18         0.0000003618
      2   1  18   1         0.0000003618
      0   6  30  33         0.0000003580
      6   0  33  30         0.0000003580
      0   2  18  34         0.0000003483
      2   0  34  18         0.0000003483
      0   3  18  43         0.0000003459
      3   0  43  18         0.0000003459
      0   5  18  42        -0.0000003453
      5   0  42  18        -0.0000003453
      0   6  43  21        -0.0000003441
      6   0  21  43        -0.0000003441
      0   6  42   8        -0.0000003434
      6   0   8  42        -0.0000003434
      0   2  35  19         0.0000003426
      2   0  19  35         0.0000003426
      1   1  25  32        -0.0000003384
      1   1  32  25        -0.0000003384
      1   5  18  43        -0.0000003375
      5   1  43  18        -0.0000003375
      0   6   9   3         0.0000003315
      6   0   3   9         0.0000003315
      0   1  24  28        -0.0000003236
      1   0  28  24        -0.0000003236
      1   5  30   2         0.0000003138
      5   1   2  30         0.0000003138
      1   3  18  40         0.0000003113
      3   1  40  18         0.0000003113
      1   2   5  39        -0.0000003104
      2   1  39   5        -0.0000003104
      0   0  14  18        -0.0000003071
      0   0  18  14        -0.0000003071
      2   3  43  18        -0.0000003031
      3   2  18  43        -0.0000003031
      1   4  30   8         0.0000003001
      4   1   8  30         0.0000003001
      1   3  42  18         0.0000002983
      3   1  18  42         0.0000002983
      0   2  30   3        -0.0000002960
      2   0   3  30        -0.0000002960
      1   7   8   1         0.0000002939
      7   1   1   8         0.0000002939
      0   3  27  18        -0.0000002900
      3   0  18  27        -0.0000002900
      2   3  30  43        -0.0000002887
      3   2  43  30        -0.0000002887
      3   7  42  38        -0.0000002705
      7   3  38  42        -0.0000002705
      1   5  43  37        -0.0000002620
      5   1  37  43        -0.0000002620
      0   1  26  31        -0.0000002595
      1   0  31  26        -0.0000002595
      1   5  25  17         0.0000002558
      5   1  17  25         0.0000002558
      0   6  18  33        -0.0000002451
      6   0  33  18        -0.0000002451
      1   5   7   9         0.0000002432
      5   1   9   7         0.0000002432
      1   3  18  42         0.0000002375
      3   1  42  18         0.0000002375
      1   5  42  19        -0.0000002323
      5   1  19  42        -0.0000002323
      6   6  25  32         0.0000002304
      6   6  32  25         0.0000002304
      1   1  15  19        -0.0000002283
      1   1  19  15        -0.0000002283
      0   1  18   2         0.0000002271
      1   0   2  18         0.0000002271
      1   3  37  18         0.0000002270
      3   1  18  37         0.0000002270
      0   3  11  19        -0.0000002265
      3   0  19  11        -0.0000002265
      0   0   3  18        -0.0000002257
      0   0  18   3        -0.0000002257
      2   5  43   1        -0.0000002253
      5   2   1  43        -0.0000002253
      1   2  18  35        -0.0000002204
      2   1  35  18        -0.0000002204
      2   6  25  13        -0.0000002135
      6   2  13  25        -0.0000002135
      1   6  30  25         0.0000002104
      6   1  25  30         0.0000002104
      1   1   1  31         0.0000002066
      1   1  31   1         0.0000002066
      0   0  25  32         0.0000002050
      0   0  32  25         0.0000002050
      7   7  34  42        -0.0000001998
      7   7  42  34        -0.0000001998
      0   4  31  20        -0.0000001980
      4   0  20  31        -0.0000001980
      0   7  43   7        -0.0000001947
      7   0   7  43        -0.0000001947
      3   5  42  19        -0.0000001935
      5   3  19  42        -0.0000001935
      2   6  42  20         0.0000001916
      6   2  20  42         0.0000001916
      1   4  42  20        -0.0000001889
      4   1  20  42        -0.0000001889
      1   5  43  18        -0.0000001862
      5   1  18  43        -0.0000001862
      0   2  30  37         0.0000001850
      2   0  37  30         0.0000001850
      0   0  15  19        -0.0000001834
      0   0  19  15        -0.0000001834
      1   3  35  19        -0.0000001832
      3   1  19  35        -0.0000001832
      0   0  31  41        -0.0000001742
      0   0  41  31        -0.0000001742
      1   5  30  43         0.0000001701
      5   1  43  30         0.0000001701
      1   2  18  41         0.0000001636
      2   1  41  18         0.0000001636
      0   5  43  19        -0.0000001624
      5   0  19  43        -0.0000001624
      1   3  19  13         0.0000001608
      3   1  13  19         0.0000001608
      1   1  31  41         0.0000001598
      1   1  41  31         0.0000001598
      0   6  25  43        -0.0000001484
      6   0  43  25        -0.0000001484
      0   1  15  30        -0.0000001459
      1   0  30  15        -0.0000001459
      0   6  11   9         0.0000001400
      6   0   9  11         0.0000001400
      0   1  31  26         0.0000001387
      1   0  26  31         0.0000001387
      0   5  34  18         0.0000001384
      5   0  18  34         0.0000001384
      0   2  19  12        -0.0000001383
      2   0  12  19        -0.0000001383
      2   3  19  42        -0.0000001379
      3   2  42  19        -0.0000001379
      0   4  43  20        -0.0000001142
      4   0  20  43        -0.0000001142
      4   6  42  31         0.0000001127
      6   4  31  42         0.0000001127
      1   1   3  18        -0.0000001125
      1   1  18   3        -0.0000001125
      1   1  14  18        -0.0000001079
      1   1  18  14        -0.0000001079
      4   6  43  30         0.0000001068
      6   4  30  43         0.0000001068
      2   5  42  37        -0.0000001019
      5   2  37  42        -0.0000001019
      0   0   1  31         0.0000000961
      0   0  31   1         0.0000000961
      1   5  28   8         0.0000000932
      5   1   8  28         0.0000000932
      0   5  35  19        -0.0000000871
      5   0  19  35        -0.0000000871
      0   1   2  18         0.0000000820
      1   0  18   2         0.0000000820
      7   7  36  43        -0.0000000819
      7   7  43  36        -0.0000000819
      1   5  40  19        -0.0000000770
      5   1  19  40        -0.0000000770
      0   2  19  36         0.0000000757
      2   0  36  19         0.0000000757
      0   1  28  24        -0.0000000744
      1   0  24  28        -0.0000000744
      2   7  43   7         0.0000000616
      7   2   7  43         0.0000000616
      0   7  43  16        -0.0000000585
      7   0  16  43        -0.0000000585
      1   6  15   8        -0.0000000566
      6   1   8  15        -0.0000000566
      1   5  19  14        -0.0000000544
      5   1  14  19        -0.0000000544
      3   5  31  42         0.0000000541
      5   3  42  31         0.0000000541
      3   5  19  42        -0.0000000534
      5   3  42  19        -0.0000000534
      1   2  41  18        -0.0000000522
      2   1  18  41        -0.0000000522
      0   5  42  18         0.0000000483
      5   0  18  42         0.0000000483
      1   4  30  24        -0.0000000408
      4   1  24  30        -0.0000000408
      1   7  42  25         0.0000000387
      7   1  25  42         0.0000000387
      0   3  40  19         0.0000000387
      3   0  19  40         0.0000000387
      0   1  30  15        -0.0000000316
      1   0  15  30        -0.0000000316
      4   7  42  27        -0.0000000292
      7   4  27  42        -0.0000000292
      1   4  43  10         0.0000000285
      4   1  10  43         0.0000000285
      4   5  24  31        -0.0000000236
      5   4  31  24        -0.0000000236
      0   6  21   2         0.0000000202
      6   0   2  21         0.0000000202
      1   2  18   1        -0.0000000193
      2   1   1  18        -0.0000000193
      1   5  31  37        -0.0000000158
      5   1  37  31        -0.0000000158

    SCF energy       (wfn)                    =  -77.909242811058192
    Reference energy (file100)                =  -77.909242811058505

    Opposite-spin MP2 correlation energy      =   -0.252187135203711
    Same-spin MP2 correlation energy          =   -0.061731598023200
    MP2 correlation energy                    =   -0.313918733226911
      * MP2 total energy                      =  -78.223161544285418

    Opposite-spin CCSD correlation energy     =   -0.301537491622687
    Same-spin CCSD correlation energy         =   -0.053950606552509
    CCSD correlation energy                   =   -0.355488098175196
      * CCSD total energy                     =  -78.264730909233705


*** tstop() called on Berts-MacBook-Pro.local at Wed Dec  6 22:38:07 2017
Module time:
	user time   =     148.26 seconds =       2.47 minutes
	system time =       3.33 seconds =       0.06 minutes
	total time  =        152 seconds =       2.53 minutes
Total time:
	user time   =     207.55 seconds =       3.46 minutes
	system time =       4.51 seconds =       0.08 minutes
	total time  =        213 seconds =       3.55 minutes

*** Psi4 exiting successfully. Buy a developer a beer!
