
    -----------------------------------------------------------------------
          Psi4: An Open-Source Ab Initio Electronic Structure Package
                               Psi4 1.1 release

                         Git: Rev {HEAD} add49b9 


    R. M. Parrish, L. A. Burns, D. G. A. Smith, A. C. Simmonett,
    A. E. DePrince III, E. G. Hohenstein, U. Bozkaya, A. Yu. Sokolov,
    R. Di Remigio, R. M. Richard, J. F. Gonthier, A. M. James,
    H. R. McAlexander, A. Kumar, M. Saitow, X. Wang, B. P. Pritchard,
    P. Verma, H. F. Schaefer III, K. Patkowski, R. A. King, E. F. Valeev,
    F. A. Evangelista, J. M. Turney, T. D. Crawford, and C. D. Sherrill,
    J. Chem. Theory Comput. in press (2017).
    (doi: 10.1021/acs.jctc.7b00174)

    -----------------------------------------------------------------------


    Psi4 started on: Wednesday, 06 December 2017 11:10PM

    Process ID:  12195
    PSIDATADIR: /anaconda3/share/psi4
    Memory:     500.0 MiB
    Threads:    1
    
  ==> Input File <==

--------------------------------------------------------------------------
"""This is a template for psi4 input format."""
import numpy
import sys

from openfermion.config import *
from openfermion.ops._interaction_tensor import (one_body_basis_change,
                                              two_body_basis_change)
from openfermion.hamiltonians import MolecularData
from numpy import array

sys.path.append('/Users/wadejong/Desktop/Quantum-Computing/OpenFermion/OpenFermion-Psi4/openfermionpsi4')
from _psi4_conversion_functions import *

# Set number of threads in PSI4
set_num_threads(8)

# Set memory that job can use in megabytes.
memory 8000 mb

# Initialize molecular data.
_description = 'ethylene_2.51327'
if _description == 'None':
    _description = None
molecule = MolecularData([['C', array([ 0.      ,  0.      ,  0.673055])], ['C', array([ 0.      ,  0.      , -0.673055])], ['H', array([ 0.      ,  0.934981,  1.246807])], ['H', array([ 0.      , -0.934981,  1.246807])], ['H', array([ 0.54956804,  0.75641552, -1.246807  ])], ['H', array([-0.54956804, -0.75641552, -1.246807  ])]],
                         'DZP',
                         1,
                         0,
                         _description,
                          filename='/Users/wadejong/Desktop/QCQCSiddiqi/8_Qubit_Simulation/data/H4-C2_DZP_singlet_ethylene_2.51327')

# Set molecular geometry and symmetry.
molecule mol {
C 0.0 0.0 0.673055
C 0.0 0.0 -0.673055
H 0.0 0.934981 1.246807
H 0.0 -0.934981 1.246807
H 0.5495680429736689 0.7564155184176826 -1.246807
H -0.5495680429736689 -0.7564155184176826 -1.246807
symmetry c1
}
mol.set_multiplicity(1)
mol.set_molecular_charge(0)

# Set reference and guess.
if molecule.multiplicity == 1:
    set reference rhf
    set guess sad
    set sad_frac_occ true
else:
    set reference rohf
    set guess sad
    set sad_frac_occ true

# Set global parameters of calculation.
set globals {
    basis DZP
    freeze_core false
    fail_on_maxiter true
    df_scf_guess false
    guess sad
    sad_frac_occ true
    opdm false
    tpdm false
    soscf true
    scf_type pk
    diis true
    maxiter 1e6
    num_amps_print 1e6
    r_convergence 1e-7
    d_convergence 1e-7
    e_convergence 1e-7
    ints_tolerance EQUALITY_TOLERANCE
    damping_percentage 0
}

# Run self-consistent field (SCF) calculation.
if True:
    try:

        hf_energy, hf_wavefunction = energy('scf', return_wfn=True)
        scf_wfn = hf_wavefunction
        if True:
            print('Hartree-Fock energy for {} ({} electrons) is {}.'.format(
                molecule.name, molecule.n_electrons, hf_energy))
    except:
        if True:
            print('WARNING: SCF calculation failed.')
        else:
            raise
    else:
        # Get orbitals and Fock matrix.
        molecule.hf_energy = hf_energy
        molecule.nuclear_repulsion = mol.nuclear_repulsion_energy()
        molecule.canonical_orbitals = numpy.asarray(hf_wavefunction.Ca())
        molecule.n_orbitals = molecule.canonical_orbitals.shape[0]
        molecule.n_qubits = 2 * molecule.n_orbitals
        molecule.orbital_energies = numpy.asarray(hf_wavefunction.epsilon_a())
        molecule.fock_matrix = numpy.asarray(hf_wavefunction.Fa())

        # Get integrals using MintsHelper.
        mints = MintsHelper(hf_wavefunction.basisset())
        molecule.one_body_integrals = one_body_basis_change(
            numpy.asarray(mints.ao_kinetic()), molecule.canonical_orbitals)
        molecule.one_body_integrals += one_body_basis_change(
            numpy.asarray(mints.ao_potential()), molecule.canonical_orbitals)
        two_body_integrals = numpy.asarray(mints.ao_eri())
        two_body_integrals.reshape((molecule.n_orbitals, molecule.n_orbitals,
                                    molecule.n_orbitals, molecule.n_orbitals))
        two_body_integrals = numpy.einsum('psqr', two_body_integrals)
        two_body_integrals = two_body_basis_change(
            two_body_integrals, molecule.canonical_orbitals)
        molecule.two_body_integrals = two_body_integrals
        molecule.save()


# Perform MP2 energy calculation if there are at least two electrons.
if True:
    try:
        assert molecule.n_electrons > 1
        mp2_energy = energy('mp2',ref_wfn=scf_wfn)
        if True:
            print('MP2 energy for {} ({} electrons) is {}.'.format(
                molecule.name, molecule.n_electrons, mp2_energy))
    except:
        if True:
            print('WARNING: MP2 calculation failed.')
        else:
            raise
    else:
        molecule.mp2_energy = mp2_energy
        molecule.save()


# Perform configuration interaction singles and doubles (CISD) calculation.
if True:
    set qc_module detci
    try:
        cisd_energy, cisd_wavefunction = energy('cisd', ref_wfn=scf_wfn, return_wfn=True)
        if True:
            print('CISD energy for {} ({} electrons) is {}.'.format(
                molecule.name, molecule.n_electrons, cisd_energy))
    except:
        if True:
            print('WARNING: CISD calculation failed.')
        else:
            raise
    else:
        # For the functions below, "a" and "b" refer to "up and "down" spins.
        molecule.cisd_energy = cisd_energy

        # Get 1-RDM from CISD calculation.
        """cisd_one_rdm_a = numpy.array(cisd_wavefunction.get_opdm(
            0, 0, 'A', True)).reshape(molecule.n_orbitals, molecule.n_orbitals)
        cisd_one_rdm_b = numpy.array(cisd_wavefunction.get_opdm(
            0, 0, 'B', True)).reshape(molecule.n_orbitals, molecule.n_orbitals)

        # Get 2-RDM from CISD calculation.
        cisd_two_rdm_aa = numpy.array(cisd_wavefunction.get_tpdm(
            'AA', False)).reshape(molecule.n_orbitals, molecule.n_orbitals,
                                  molecule.n_orbitals, molecule.n_orbitals)
        cisd_two_rdm_ab = numpy.array(cisd_wavefunction.get_tpdm(
            'AB', False)).reshape(molecule.n_orbitals, molecule.n_orbitals,
                                  molecule.n_orbitals, molecule.n_orbitals)
        cisd_two_rdm_bb = numpy.array(cisd_wavefunction.get_tpdm(
            'BB', False)).reshape(molecule.n_orbitals, molecule.n_orbitals,
                                  molecule.n_orbitals, molecule.n_orbitals)

        # Get overall RDMs.
        cisd_one_rdm, cisd_two_rdm = unpack_spatial_rdm(
            cisd_one_rdm_a, cisd_one_rdm_b, cisd_two_rdm_aa,
            cisd_two_rdm_ab, cisd_two_rdm_bb)

        # Store 1-RDM in molecule file, 2-RDM separately in other file.
        molecule.cisd_one_rdm = cisd_one_rdm
        molecule.cisd_two_rdm = cisd_two_rdm
        molecule.save()"""


# Perform exact diagonalization.
if False:
    set qc_module detci
    try:
        fci_energy, fci_wavefunction = energy('fci', ref_wfn=scf_wfn, return_wfn=True)
        if True:
            print('FCI energy for {} ({} electrons) is {}.'.format(
                molecule.name, molecule.n_electrons, fci_energy))
    except:
        if True:
            print('WARNING: FCI calculation failed.')
        else:
            raise
    else:
        # For the functions below, "a" and "b" refer to "up and "down" spins.
        molecule.fci_energy = fci_energy

        # Get 1-RDM from FCI calculation.
        """fci_one_rdm_a = numpy.array(fci_wavefunction.get_opdm(
            0, 0, 'A', True)).reshape(molecule.n_orbitals, molecule.n_orbitals)
        fci_one_rdm_b = numpy.array(fci_wavefunction.get_opdm(
            0, 0, 'B', True)).reshape(molecule.n_orbitals, molecule.n_orbitals)

        # Get 2-RDM from FCI calculation.
        fci_two_rdm_aa = numpy.array(fci_wavefunction.get_tpdm(
            'AA', False)).reshape(molecule.n_orbitals, molecule.n_orbitals,
                                  molecule.n_orbitals, molecule.n_orbitals)
        fci_two_rdm_ab = numpy.array(fci_wavefunction.get_tpdm(
            'AB', False)).reshape(molecule.n_orbitals, molecule.n_orbitals,
                                  molecule.n_orbitals, molecule.n_orbitals)
        fci_two_rdm_bb = numpy.array(fci_wavefunction.get_tpdm(
            'BB', False)).reshape(molecule.n_orbitals, molecule.n_orbitals,
                                  molecule.n_orbitals, molecule.n_orbitals)

        # Get overall RDMs.
        fci_one_rdm, fci_two_rdm = unpack_spatial_rdm(
            fci_one_rdm_a, fci_one_rdm_b,
            fci_two_rdm_aa, fci_two_rdm_ab, fci_two_rdm_bb)

        # Store 1-RDM in molecule file, 2-RDM separately in other file.
        molecule.fci_one_rdm = fci_one_rdm
        molecule.fci_two_rdm = fci_two_rdm
        molecule.save()"""


# Perform coupled cluster singles and doubles (CCSD) calculation.
if True:
    set qc_module ccenergy
    try:
        ccsd_energy = energy('ccsd',ref_wfn=scf_wfn)
        if True:
            print('CCSD energy for {} ({} electrons) is {}.'.format(
                molecule.name, molecule.n_electrons, ccsd_energy))
    except:
        if True:
            print('WARNING: CCSD calculation failed.')
        else:
            raise
    else:
        molecule.ccsd_energy = ccsd_energy

        # Merge CC amplitudes into molecule by parsing
        psi_filename = outfile_name()
        ccsd_amplitudes = parse_psi4_ccsd_amplitudes(
            2 * molecule.n_orbitals,
            molecule.get_n_alpha_electrons(),
            molecule.get_n_beta_electrons(),
            psi_filename)
        molecule.ccsd_amplitudes = ccsd_amplitudes
        molecule.save()
--------------------------------------------------------------------------
  Python driver attempted to set threads to 8.
  Psi4 was compiled without OpenMP, setting threads to 1.

  Memory set to   7.451 GiB by Python driver.

*** tstart() called on Berts-MacBook-Pro.local
*** at Wed Dec  6 23:10:24 2017

   => Loading Basis Set <=

    Name: DZP
    Role: ORBITAL
    Keyword: BASIS
    atoms 1-2 entry C          line    73 file /anaconda3/share/psi4/basis/dzp.gbs 
    atoms 3-6 entry H          line    16 file /anaconda3/share/psi4/basis/dzp.gbs 


         ---------------------------------------------------------
                                   SCF
            by Justin Turney, Rob Parrish, and Andy Simmonett
                              RHF Reference
                        1 Threads,   7629 MiB Core
         ---------------------------------------------------------

  ==> Geometry <==

    Molecular point group: c1
    Full point group: D2

    Geometry (in Angstrom), charge = 0, multiplicity = 1:

       Center              X                  Y                   Z               Mass       
    ------------   -----------------  -----------------  -----------------  -----------------
           C          0.000000000000     0.000000000000     0.673055000000    12.000000000000
           C          0.000000000000     0.000000000000    -0.673055000000    12.000000000000
           H         -0.288925018418     0.889219772662     1.246807000000     1.007825032070
           H          0.288925018418    -0.889219772662     1.246807000000     1.007825032070
           H          0.288925018418     0.889219772662    -1.246807000000     1.007825032070
           H         -0.288925018418    -0.889219772662    -1.246807000000     1.007825032070

  Running in c1 symmetry.

  Rotational constants: A =      4.78350  B =      0.96465  C =      0.82935 [cm^-1]
  Rotational constants: A = 143405.72603  B =  28919.51232  C =  24863.13774 [MHz]
  Nuclear repulsion =   33.001958640853196

  Charge       = 0
  Multiplicity = 1
  Electrons    = 16
  Nalpha       = 8
  Nbeta        = 8

  ==> Algorithm <==

  SCF Algorithm Type is PK.
  DIIS enabled.
  MOM disabled.
  Fractional occupation disabled.
  Guess Type is SAD.
  Energy threshold   = 1.00e-07
  Density threshold  = 1.00e-07
  Integral threshold = 0.00e+00

  ==> Primary Basis <==

  Basis Set: DZP
    Blend: DZP
    Number of shells: 26
    Number of basis function: 52
    Number of Cartesian functions: 52
    Spherical Harmonics?: false
    Max angular momentum: 2

  ==> Pre-Iterations <==

   -------------------------------------------------------
    Irrep   Nso     Nmo     Nalpha   Nbeta   Ndocc  Nsocc
   -------------------------------------------------------
     A         52      52       0       0       0       0
   -------------------------------------------------------
    Total      52      52       8       8       8       0
   -------------------------------------------------------

  ==> Integral Setup <==

  Using in-core PK algorithm.
   Calculation information:
      Number of atoms:                   6
      Number of AO shells:              26
      Number of primitives:             50
      Number of atomic orbitals:        52
      Number of basis functions:        52

      Integral cutoff                 1.00e-12
      Number of threads:                 1

  Performing in-core PK
  Using 1900262 doubles for integral storage.
  We computed 61765 shell quartets total.
  Whereas there are 61776 unique shell quartets.
  ==> DiskJK: Disk-Based J/K Matrices <==

    J tasked:                  Yes
    K tasked:                  Yes
    wK tasked:                  No
    Memory (MB):              5722
    Schwarz Cutoff:          1E-12

    OpenMP threads:              1
  Minimum eigenvalue in the overlap matrix is 7.0444063947E-03.
  Using Symmetric Orthogonalization.

  SCF Guess: Superposition of Atomic Densities via on-the-fly atomic UHF.

  ==> Iterations <==

                        Total Energy        Delta E     RMS |[F,P]|

   @RHF iter   0:   -69.16291929878028   -6.91629e+01   1.01497e-01 
   @RHF iter   1:   -74.30404953156700   -5.14113e+00   4.00070e-02 
   @RHF iter   2:   -77.17709666124286   -2.87305e+00   2.40573e-02 DIIS/DAMP
   @RHF iter   3:   -78.00908286705230   -8.31986e-01   2.38067e-03 DIIS/DAMP
   @RHF iter   4:   -78.02018503877159   -1.11022e-02   3.99516e-04 SOSCF, nmicro = 4/DAMP
   @RHF iter   5:   -78.02070979918737   -5.24760e-04   2.05282e-06 SOSCF, nmicro = 4/DAMP
   @RHF iter   6:   -78.02070980909443   -9.90705e-09   3.25554e-09 SOSCF, conv/DAMP

  ==> Post-Iterations <==

    Orbital Energies (a.u.)
    -----------------------

    Doubly Occupied:                                                      

       1A    -11.245819     2A    -11.244275     3A     -1.027794  
       4A     -0.788535     5A     -0.629511     6A     -0.582952  
       7A     -0.525097     8A     -0.344401  

    Virtual:                                                              

       9A      0.125223    10A      0.257490    11A      0.299656  
      12A      0.367242    13A      0.374413    14A      0.412752  
      15A      0.446576    16A      0.471481    17A      0.481828  
      18A      0.601624    19A      0.605283    20A      0.672576  
      21A      0.822434    22A      1.018881    23A      1.207454  
      24A      1.216663    25A      1.311600    26A      1.483333  
      27A      1.572729    28A      1.616555    29A      1.646338  
      30A      1.951831    31A      2.047534    32A      2.070923  
      33A      2.119118    34A      2.121864    35A      2.173615  
      36A      2.447534    37A      2.474724    38A      2.481283  
      39A      2.694552    40A      2.727914    41A      2.813424  
      42A      2.926397    43A      2.933678    44A      3.196927  
      45A      3.400653    46A      3.519688    47A      3.539242  
      48A      3.853627    49A      4.226424    50A      4.526885  
      51A     27.630104    52A     27.659492  

    Final Occupation by Irrep:
              A 
    DOCC [     8 ]

  Energy converged.

  @RHF Final Energy:   -78.02070980909443

   => Energetics <=

    Nuclear Repulsion Energy =             33.0019586408531964
    One-Electron Energy =                -169.2685686167822610
    Two-Electron Energy =                  58.2459001668346446
    DFT Exchange-Correlation Energy =       0.0000000000000000
    Empirical Dispersion Energy =           0.0000000000000000
    PCM Polarization Energy =               0.0000000000000000
    EFP Energy =                            0.0000000000000000
    Total Energy =                        -78.0207098090944271



Properties will be evaluated at   0.000000,   0.000000,   0.000000 Bohr

Properties computed using the SCF density matrix

  Nuclear Dipole Moment: (a.u.)
     X:     0.0000      Y:     0.0000      Z:     0.0000

  Electronic Dipole Moment: (a.u.)
     X:    -0.0000      Y:    -0.0000      Z:     0.0000

  Dipole Moment: (a.u.)
     X:    -0.0000      Y:    -0.0000      Z:     0.0000     Total:     0.0000

  Dipole Moment: (Debye)
     X:    -0.0000      Y:    -0.0000      Z:     0.0000     Total:     0.0000


*** tstop() called on Berts-MacBook-Pro.local at Wed Dec  6 23:10:24 2017
Module time:
	user time   =       0.40 seconds =       0.01 minutes
	system time =       0.02 seconds =       0.00 minutes
	total time  =          0 seconds =       0.00 minutes
Total time:
	user time   =       0.40 seconds =       0.01 minutes
	system time =       0.02 seconds =       0.00 minutes
	total time  =          0 seconds =       0.00 minutes

*** tstart() called on Berts-MacBook-Pro.local
*** at Wed Dec  6 23:10:28 2017


  //>>>>>>>>>>>>>>>>>>>>>>>>>>>>>>>>>>>//
  //               DFMP2               //
  //<<<<<<<<<<<<<<<<<<<<<<<<<<<<<<<<<<<//

   => Loading Basis Set <=

    Name: (DZP AUX)
    Role: RIFIT
    Keyword: DF_BASIS_MP2
    atoms 1-2 entry C          line   269 file /anaconda3/share/psi4/basis/def2-qzvpp-ri.gbs 
    atoms 3-6 entry H          line    23 file /anaconda3/share/psi4/basis/def2-qzvpp-ri.gbs 

	 --------------------------------------------------------
	                          DF-MP2                         
	      2nd-Order Density-Fitted Moller-Plesset Theory     
	              RMP2 Wavefunction,   1 Threads             
	                                                         
	        Rob Parrish, Justin Turney, Andy Simmonett,      
	           Ed Hohenstein, and C. David Sherrill          
	 --------------------------------------------------------

   => Auxiliary Basis Set <=

  Basis Set: (DZP AUX)
    Blend: DEF2-QZVPP-RI
    Number of shells: 130
    Number of basis function: 506
    Number of Cartesian functions: 666
    Spherical Harmonics?: true
    Max angular momentum: 5

	 --------------------------------------------------------
	                 NBF =    52, NAUX =   506
	 --------------------------------------------------------
	   CLASS    FOCC     OCC    AOCC    AVIR     VIR    FVIR
	   PAIRS       0       8       8      44      44       0
	 --------------------------------------------------------

	-----------------------------------------------------------
	 ==================> DF-MP2 Energies <==================== 
	-----------------------------------------------------------
	 Reference Energy          =     -78.0207098090944271 [Eh]
	 Singles Energy            =      -0.0000000000000000 [Eh]
	 Same-Spin Energy          =      -0.0606133636305941 [Eh]
	 Opposite-Spin Energy      =      -0.2452158015511960 [Eh]
	 Correlation Energy        =      -0.3058291651817901 [Eh]
	 Total Energy              =     -78.3265389742762181 [Eh]
	-----------------------------------------------------------
	 ================> DF-SCS-MP2 Energies <================== 
	-----------------------------------------------------------
	 SCS Same-Spin Scale       =       0.3333333333333333 [-]
	 SCS Opposite-Spin Scale   =       1.2000000000000000 [-]
	 SCS Same-Spin Energy      =      -0.0202044545435314 [Eh]
	 SCS Opposite-Spin Energy  =      -0.2942589618614351 [Eh]
	 SCS Correlation Energy    =      -0.3144634164049665 [Eh]
	 SCS Total Energy          =     -78.3351732254993891 [Eh]
	-----------------------------------------------------------


*** tstop() called on Berts-MacBook-Pro.local at Wed Dec  6 23:10:28 2017
Module time:
	user time   =       0.31 seconds =       0.01 minutes
	system time =       0.05 seconds =       0.00 minutes
	total time  =          0 seconds =       0.00 minutes
Total time:
	user time   =       4.59 seconds =       0.08 minutes
	system time =       0.22 seconds =       0.00 minutes
	total time  =          4 seconds =       0.07 minutes
 MINTS: Wrapper to libmints.
   by Justin Turney

   Calculation information:
      Number of threads:                 1
      Number of atoms:                   6
      Number of AO shells:              26
      Number of SO shells:              26
      Number of primitives:             50
      Number of atomic orbitals:        52
      Number of basis functions:        52

      Number of irreps:                  1
      Integral cutoff                 0.00e+00
      Number of functions per irrep: [  52 ]

 OEINTS: Overlap, kinetic, potential, dipole, and quadrupole integrals
         stored in file 35.

      Computing two-electron integrals...done
      Computed 840612 non-zero two-electron integrals.
        Stored in file 33.


         ---------------------------------------------------------
                          Configuration Interaction
                            (a 'D E T C I' module)

                 C. David Sherrill, Daniel G. A. Smith, and
                              Matt L. Leininger
         ---------------------------------------------------------


   ==> Parameters <==

    EX LEVEL       =        2      H0 BLOCKSIZE  =     1000
    VAL EX LEVEL   =        0      H0 GUESS SIZE =     1000
    H0COUPLINGSIZE =        0      H0 COUPLING   =       NO
    MAXITER        =       24      NUM PRINT     =       20
    NUM ROOTS      =        1      ICORE         =        1
    PRINT LVL      =        1      FCI           =       NO
    R CONV         = 1.00e-07      MIXED         =      YES
    E CONV         = 1.00e-07      MIXED4        =      YES
    R4S            =       NO      REPL OTF      =       NO
    DIAG METHOD    =      SEM      FOLLOW ROOT   =        0
    PRECONDITIONER = DAVIDSON      UPDATE        = DAVIDSON
    S              =   0.0000      Ms0           =      YES
    GUESS VECTOR   =  H0BLOCK      OPENTYPE      =     NONE
    COLLAPSE SIZE  =        1      HD AVG        = EVANGELISTI
    MAX NUM VECS   =       25      REF SYM       =     AUTO
    IOPEN        =       NO

    EX ALLOW       =  1  1 
    STATE AVERAGE  =  0(1.00) 

   ==> CI Orbital and Space information <==

    RAS1 LVL      =        7      A RAS3 MAX    =        2
    RAS1 MIN      =       14      B RAS3 MAX    =        2
    A RAS1 LVL    =        7      RAS4 LVL      =       52
    A RAS1 MIN    =        6      A RAS4 MAX    =        0
    A RAS1 MAX    =        8      B RAS4 MAX    =        0
    B RAS1 LVL    =        7      RAS4 MAX      =        0
    B RAS1 MIN    =        6      A RAS34 MAX   =        2
    B RAS1 MAX    =        8      B RAS34 MAX   =        2
    RAS3 LVL      =        8      RAS34 MAX     =        2
    RAS3 MAX      =        2
   ------------------------------------
               Space    Total     A
   ------------------------------------
                 Nso       52    52
                 Nmo       52    52
               Ndocc        8     8
               Nsocc        0     0
   ------------------------------------
              CI Spaces
   ------------------------------------
        Dropped DOCC        0     0
                RAS1        8     8
                RAS2        0     0
                RAS3       44    44
                RAS4        0     0
      Active (total)       52    52
        Dropped UOCC        0     0
   ------------------------------------

   ==> Setting up CI strings <==

    There are 26841 alpha and 26841 beta strings
    The CI space requires 177585 (1.78E+05) determinants and 6 blocks

   ==> Transforming CI integrals <==

	Presorting SO-basis two-electron integrals.
	Sorting File: SO Ints (nn|nn) nbuckets = 1
	Transforming the one-electron integrals and constructing Fock matrices
	Starting first half-transformation.
	Sorting half-transformed integrals.
	First half integral transformation complete.
	Starting second half-transformation.
	Two-electron integral transformation complete.

   ==> Starting CI iterations <==

    H0 Block Eigenvalue = -78.05740608

    Simultaneous Expansion Method (Block Davidson Method)
    Using 1 initial trial vectors

     Iter   Root       Total Energy       Delta E      C RMS

   @CI  0:     0    -78.057406077606   -1.1106E+02   1.5336E+00  
   @CI  1:     0    -78.318537198021   -2.6113E-01   1.5391E-01  
   @CI  2:     0    -78.329112133207   -1.0575E-02   4.7379E-02  
   @CI  3:     0    -78.329945462094   -8.3333E-04   1.1713E-02  
   @CI  4:     0    -78.329998407957   -5.2946E-05   3.4114E-03  
   @CI  5:     0    -78.330001969558   -3.5616E-06   8.4431E-04  
   @CI  6:     0    -78.330002210625   -2.4107E-07   2.3833E-04  
   @CI  7:     0    -78.330002228539   -1.7913E-08   6.5373E-05  
   @CI  8:     0    -78.330002229854   -1.3147E-09   1.6322E-05  
   @CI  9:     0    -78.330002229935   -8.1172E-11   4.0552E-06  
   @CI 10:     0    -78.330002229939   -4.3201E-12   7.9445E-07  
    Warning: Norm of correction (root 0) is < 1.0E-13
   @CI 11:     0    -78.330002229939   -1.8474E-13   1.8128E-07  
    Warning: Norm of correction (root 0) is < 1.0E-13
   @CI 12:     0    -78.330002229939   -1.4211E-14   3.8866E-08 c

   ==> Energetics <==

    SCF energy =            0.000000000000000
    Total CI energy =     -78.330002229939254

   ==> CISD root 0 information <==

    CISD Root 0 energy =   -78.330002229939254

   The 20 most important determinants:

    *   1    0.950136  (    0,    0)  1AX 2AX 3AX 4AX 5AX 6AX 7AX 8AX 
    *   2   -0.092776  (    1,    1)  1AX 2AX 3AX 4AX 5AX 6AX 7AX 9AX 
    *   3   -0.040469  (    1,   81)  1AX 2AX 3AX 4AX 5AX 6AX 7AX 9AA 19AB 
    *   4   -0.040469  (   81,    1)  1AX 2AX 3AX 4AX 5AX 6AX 7AX 9AB 19AA 
    *   5   -0.027066  (   99,   99)  1AX 2AX 3AX 4AX 5AX 7AX 8AX 21AX 
    *   6   -0.024870  (   81,   81)  1AX 2AX 3AX 4AX 5AX 6AX 7AX 19AX 
    *   7   -0.023628  (    1,   99)  1AX 2AX 3AX 4AX 5AX 6AA 7AX 8AB 9AA 21AB 
    *   8   -0.023628  (   99,    1)  1AX 2AX 3AX 4AX 5AX 6AB 7AX 8AA 9AB 21AA 
    *   9    0.023576  (    1,    2)  1AX 2AX 3AX 4AX 5AX 6AX 7AA 8AB 9AX 
    *  10    0.023576  (    2,    1)  1AX 2AX 3AX 4AX 5AX 6AX 7AB 8AA 9AX 
    *  11   -0.019958  (    0, 2202)  1AX 2AX 3AX 4AX 5AX 6AA 7AX 8AA 9AB 21AB 
    *  12   -0.019958  ( 2202,    0)  1AX 2AX 3AX 4AX 5AX 6AB 7AX 8AB 9AA 21AA 
    *  13   -0.019764  (   36,   36)  1AX 2AX 3AX 4AX 6AX 7AX 8AX 13AX 
    *  14   -0.018632  (    5,    5)  1AX 2AX 3AX 5AX 6AX 7AX 8AX 9AX 
    *  15   -0.018342  (   81,   99)  1AX 2AX 3AX 4AX 5AX 6AA 7AX 8AB 19AA 21AB 
    *  16   -0.018342  (   99,   81)  1AX 2AX 3AX 4AX 5AX 6AB 7AX 8AA 19AB 21AA 
    *  17   -0.018004  (   43,   43)  1AX 2AX 3AX 4AX 5AX 7AX 8AX 14AX 
    *  18   -0.017306  (   34,   34)  1AX 2AX 3AX 4AX 5AX 6AX 8AX 13AX 
    *  19   -0.016862  (   65,   65)  1AX 2AX 3AX 4AX 5AX 6AX 7AX 17AX 
    *  20   -0.016007  (    2,    2)  1AX 2AX 3AX 4AX 5AX 6AX 8AX 9AX 

		 "A good bug is a dead bug" 

			 - Starship Troopers

		 "I didn't write FORTRAN.  That's the problem."

			 - Edward Valeev
 MINTS: Wrapper to libmints.
   by Justin Turney

   Calculation information:
      Number of threads:                 1
      Number of atoms:                   6
      Number of AO shells:              26
      Number of SO shells:              26
      Number of primitives:             50
      Number of atomic orbitals:        52
      Number of basis functions:        52

      Number of irreps:                  1
      Integral cutoff                 0.00e+00
      Number of functions per irrep: [  52 ]

 OEINTS: Overlap, kinetic, potential, dipole, and quadrupole integrals
         stored in file 35.

      Computing two-electron integrals...done
      Computed 840612 non-zero two-electron integrals.
        Stored in file 33.


*** tstart() called on Berts-MacBook-Pro.local
*** at Wed Dec  6 23:11:21 2017


	Wfn Parameters:
	--------------------
	Wavefunction         = CCSD
	Number of irreps     = 1
	Number of MOs        = 52
	Number of active MOs = 52
	AO-Basis             = NONE
	Semicanonical        = false
	Reference            = RHF
	Print Level          = 1

	IRREP	# MOs	# FZDC	# DOCC	# SOCC	# VIRT	# FZVR
	-----	-----	------	------	------	------	------
	 A	   52	    0	    8	    0	    44	    0
	Transforming integrals...
	IWL integrals will be deleted.
	(OO|OO)...
	Presorting SO-basis two-electron integrals.
	Sorting File: SO Ints (nn|nn) nbuckets = 1
	Transforming the one-electron integrals and constructing Fock matrices
	Starting first half-transformation.
	Sorting half-transformed integrals.
	First half integral transformation complete.
	Starting second half-transformation.
	Two-electron integral transformation complete.
	(OO|OV)...
	Starting second half-transformation.
	Two-electron integral transformation complete.
	(OO|VV)...
	Starting second half-transformation.
	Two-electron integral transformation complete.
	(OV|OO)...
	Starting first half-transformation.
	Sorting half-transformed integrals.
	First half integral transformation complete.
	Starting second half-transformation.
	Two-electron integral transformation complete.
	(OV|OV)...
	Starting second half-transformation.
	Two-electron integral transformation complete.
	(OV|VV)...
	Starting second half-transformation.
	Two-electron integral transformation complete.
	(VV|OO)...
	Starting first half-transformation.
	Sorting half-transformed integrals.
	First half integral transformation complete.
	Starting second half-transformation.
	Two-electron integral transformation complete.
	(VV|OV)...
	Starting second half-transformation.
	Two-electron integral transformation complete.
	(VV|VV)...
	Starting second half-transformation.
	Two-electron integral transformation complete.
	Frozen core energy     =      0.00000000000000

	Size of irrep 0 of <ab|cd> integrals:      3.748 (MW) /     29.985 (MB)
	Total:                                     3.748 (MW) /     29.985 (MB)

	Size of irrep 0 of <ia|bc> integrals:      0.681 (MW) /      5.452 (MB)
	Total:                                     0.681 (MW) /      5.452 (MB)

	Size of irrep 0 of tijab amplitudes:       0.124 (MW) /      0.991 (MB)
	Total:                                     0.124 (MW) /      0.991 (MB)

	Nuclear Rep. energy          =     33.00195864085320
	SCF energy                   =    -78.02070980909443
	One-electron energy          =   -169.26856871901313
	Two-electron energy          =     58.24590026906529
	Reference energy             =    -78.02070980909465

*** tstop() called on Berts-MacBook-Pro.local at Wed Dec  6 23:11:22 2017
Module time:
	user time   =       0.28 seconds =       0.00 minutes
	system time =       0.39 seconds =       0.01 minutes
	total time  =          1 seconds =       0.02 minutes
Total time:
	user time   =      56.83 seconds =       0.95 minutes
	system time =       1.15 seconds =       0.02 minutes
	total time  =         58 seconds =       0.97 minutes

*** tstart() called on Berts-MacBook-Pro.local
*** at Wed Dec  6 23:11:22 2017

            **************************
            *                        *
            *        CCENERGY        *
            *                        *
            **************************

    Nuclear Rep. energy (wfn)     =   33.001958640853196
    SCF energy          (wfn)     =  -78.020709809094427
    Reference energy    (file100) =  -78.020709809094654

    Input parameters:
    -----------------
    Wave function   =     CCSD
    Reference wfn   =     RHF
    Brueckner       =     No
    Memory (Mbytes) =     8000.0
    Maxiter         =   1000000
    R_Convergence   =     1.0e-07
    E_Convergence   =     1.0e-07
    Restart         =     Yes
    DIIS            =     Yes
    AO Basis        =     NONE
    ABCD            =     NEW
    Cache Level     =     2
    Cache Type      =     LOW
    Print Level     =     1
    Num. of threads =     1
    # Amps to Print =     1000000
    Print MP2 Amps? =     No
    Analyze T2 Amps =     No
    Print Pair Ener =     No
    Local CC        =     No
    SCS-MP2         =     False
    SCSN-MP2        =     False
    SCS-CCSD        =     False

MP2 correlation energy -0.3058370342614453
                Solving CC Amplitude Equations
                ------------------------------
  Iter             Energy              RMS        T1Diag      D1Diag    New D1Diag    D2Diag
  ----     ---------------------    ---------   ----------  ----------  ----------   --------
     0        -0.305837034261445    0.000e+00    0.000000    0.000000    0.000000    0.160654
     1        -0.325935922135383    5.515e-02    0.006839    0.024271    0.024271    0.178347
     2        -0.336249405394760    2.408e-02    0.008524    0.031080    0.031080    0.198944
     3        -0.337601448737758    8.914e-03    0.009726    0.035933    0.035933    0.208391
     4        -0.337685640249259    3.172e-03    0.009897    0.036818    0.036818    0.212591
     5        -0.337708688301680    6.967e-04    0.009895    0.036844    0.036844    0.213194
     6        -0.337706272773873    1.930e-04    0.009886    0.036816    0.036816    0.213220
     7        -0.337705814899191    6.474e-05    0.009883    0.036805    0.036805    0.213229
     8        -0.337705648218353    1.920e-05    0.009882    0.036803    0.036803    0.213228
     9        -0.337705486119452    4.931e-06    0.009882    0.036803    0.036803    0.213227
    10        -0.337705633979549    1.417e-06    0.009882    0.036803    0.036803    0.213227
    11        -0.337705639607041    4.015e-07    0.009882    0.036804    0.036804    0.213227
    12        -0.337705649066826    9.816e-08    0.009882    0.036804    0.036804    0.213227

    Iterations converged.


    Largest TIA Amplitudes:
              7   8         0.0218166043
              7   7         0.0208957017
              7   9         0.0162750273
              7  20         0.0094893623
              4   4         0.0055864615
              6   9         0.0053435510
              6   7         0.0048556463
              5  21         0.0044308266
              3  13         0.0043954208
              7  29         0.0041240396
              7  17        -0.0040004664
              5   5         0.0037739696
              4  22        -0.0032507299
              6  33         0.0031497970
              3  24         0.0030033070
              4  15         0.0027076826
              2   2        -0.0026705178
              2  25        -0.0026692242
              2  40         0.0026384966
              5  34        -0.0022341426
              6   8         0.0022065603
              2  21         0.0022027045
              3  41         0.0018563560
              3  28        -0.0018036153
              4  37         0.0017045849
              6  23        -0.0016316164
              5  19         0.0016306046
              6  20         0.0016235788
              3  35         0.0015135089
              6  17        -0.0015074556
              2   5         0.0015044592
              7  33        -0.0014770054
              4   0        -0.0014187719
              2  11         0.0013774106
              4  32         0.0013148860
              3  30        -0.0012989876
              4  10        -0.0012894083
              5   2        -0.0012701512
              3  38         0.0012546319
              5  14        -0.0012118421
              7  23         0.0011800537
              5  36        -0.0011342462
              4  27         0.0010996008
              2  36         0.0010326491
              3   1        -0.0009203403
              2  31        -0.0008853392
              5  11        -0.0008737660
              3  12         0.0008630009
              2  14         0.0007928728
              6  39         0.0007282853
              7  39         0.0006745952
              3   3         0.0005964359
              1  13        -0.0005590617
              3  16         0.0005414835
              5  40         0.0005060094
              0  40        -0.0004582275
              4  26         0.0003751425
              1  41        -0.0003748091
              4   6         0.0003604735
              2  34        -0.0003475957
              1   1        -0.0003286444
              0  11        -0.0003276334
              0  14        -0.0002943342
              1  12        -0.0002619604
              0   2        -0.0002482402
              5  25         0.0002260548
              1  35        -0.0002244045
              6  29         0.0002099682
              1   3        -0.0001742880
              0  36        -0.0001638144
              1  38        -0.0001573832
              0   5        -0.0001402262
              3  18        -0.0001247936
              2  42         0.0001221079
              1  24        -0.0001192423
              0  21        -0.0001091269
              1  28        -0.0001065326
              1  43         0.0000972792
              0  42         0.0000966857
              3  43         0.0000908704
              1  16        -0.0000680473
              0  34        -0.0000429622
              1  30        -0.0000279884
              0  25         0.0000227291
              5  42         0.0000181177
              5  31        -0.0000146060
              1  18        -0.0000113329
              0  31         0.0000020429
              0  19         0.0000014238
              2  19         0.0000008856

    Largest TIjAb Amplitudes:
      7   7   0   0        -0.1378109763
      7   7   0  10        -0.0550095597
      7   7  10   0        -0.0550095597
      5   5  12  12        -0.0311923221
      6   7   0   0        -0.0308812778
      7   6   0   0        -0.0308812778
      7   7  10  10        -0.0296925527
      5   7  12   0        -0.0273156686
      7   5   0  12        -0.0273156686
      4   4   4   4        -0.0239544847
      6   6   4   4        -0.0218789877
      3   3   0   0        -0.0218033147
      5   5   5   5        -0.0216379165
      5   7  12  10        -0.0212624043
      7   5  10  12        -0.0212624043
      6   6   0   0        -0.0201089121
      7   7   8   8        -0.0195769500
      6   6   3   3        -0.0181570236
      3   7   2   0        -0.0180670857
      7   3   0   2        -0.0180670857
      6   6   7   7        -0.0178674667
      4   6   4   9         0.0177378948
      6   4   9   4         0.0177378948
      2   7  12   0        -0.0170416918
      7   2   0  12        -0.0170416918
      7   7  11  11        -0.0169994791
      6   7   0  10        -0.0164735845
      7   6  10   0        -0.0164735845
      4   6   2   3        -0.0161354195
      6   4   3   2        -0.0161354195
      5   5   4   4        -0.0161055412
      2   7   1   0        -0.0160508910
      7   2   0   1        -0.0160508910
      2   7   0  12        -0.0160430759
      7   2  12   0        -0.0160430759
      4   4   2   2        -0.0159340075
      3   7   0   2        -0.0159320180
      7   3   2   0        -0.0159320180
      4   5   4   5         0.0158175005
      5   4   5   4         0.0158175005
      6   7   0   4        -0.0158133907
      7   6   4   0        -0.0158133907
      5   7   5   8         0.0155006166
      7   5   8   5         0.0155006166
      4   4   6   6        -0.0153268174
      6   7  10   0        -0.0149338964
      7   6   0  10        -0.0149338964
      2   2  12  12        -0.0146936743
      4   6   6   7        -0.0146926996
      6   4   7   6        -0.0146926996
      5   6   5   7         0.0146918001
      6   5   7   5         0.0146918001
      6   7   7   8        -0.0144075599
      7   6   8   7        -0.0144075599
      5   6   4   3         0.0141616486
      6   5   3   4         0.0141616486
      4   6   4   7        -0.0138457128
      6   4   7   4        -0.0138457128
      2   7   0   3        -0.0137999660
      7   2   3   0        -0.0137999660
      3   5   1   5         0.0137121480
      5   3   5   1         0.0137121480
      4   7   9   0         0.0133500026
      7   4   0   9         0.0133500026
      4   7   4   8        -0.0132800991
      7   4   8   4        -0.0132800991
      6   6   9   9        -0.0131808556
      4   7   6   8        -0.0131606901
      7   4   8   6        -0.0131606901
      4   6   9   4         0.0130122241
      6   4   4   9         0.0130122241
      6   7   6   0        -0.0129416978
      7   6   0   6        -0.0129416978
      2   7   0   1        -0.0129022788
      7   2   1   0        -0.0129022788
      6   6   2   2        -0.0128793776
      2   7   1  10        -0.0128715671
      7   2  10   1        -0.0128715671
      3   5   2  12        -0.0127844001
      5   3  12   2        -0.0127844001
      4   4   9   9        -0.0127155828
      2   7  12  10        -0.0127028468
      7   2  10  12        -0.0127028468
      3   7   0  11         0.0126522420
      7   3  11   0         0.0126522420
      3   3  12  12        -0.0126230235
      2   7  13  10        -0.0125502808
      7   2  10  13        -0.0125502808
      5   6  12   6        -0.0122867787
      6   5   6  12        -0.0122867787
      3   6   0  19         0.0122580538
      6   3  19   0         0.0122580538
      2   5  13  12        -0.0121508399
      5   2  12  13        -0.0121508399
      5   6   5   9        -0.0121067173
      6   5   9   5        -0.0121067173
      3   3   2   2        -0.0120271209
      3   6   1   7        -0.0119843240
      6   3   7   1        -0.0119843240
      3   4   1   4        -0.0119505318
      4   3   4   1        -0.0119505318
      3   7   0   5        -0.0118197633
      7   3   5   0        -0.0118197633
      3   7   1   8        -0.0118102717
      7   3   8   1        -0.0118102717
      4   4   3   3        -0.0118094326
      4   6   3   2        -0.0117274669
      6   4   2   3        -0.0117274669
      5   5   0   0        -0.0117141741
      4   5   6   5         0.0116483590
      5   4   5   6         0.0116483590
      2   7   3   0        -0.0116188960
      7   2   0   3        -0.0116188960
      2   7  13   0        -0.0116141859
      7   2   0  13        -0.0116141859
      4   6   4  17        -0.0115102686
      6   4  17   4        -0.0115102686
      3   3   1   1        -0.0114974086
      7   7  12  12        -0.0114810304
      5   5  20  20        -0.0114794162
      6   6  14  14        -0.0114352739
      6   6   7   9         0.0113800140
      6   6   9   7         0.0113800140
      3   7   5   0        -0.0112356514
      7   3   0   5        -0.0112356514
      3   4   0  18         0.0111724843
      4   3  18   0         0.0111724843
      3   7   2  10        -0.0111229970
      7   3  10   2        -0.0111229970
      2   2   0   0        -0.0110171125
      4   5   2   4         0.0110169316
      5   4   4   2         0.0110169316
      5   5   2   2        -0.0109720631
      5   6  12   0        -0.0109529853
      6   5   0  12        -0.0109529853
      4   7   9  10         0.0109446291
      7   4  10   9         0.0109446291
      3   5   0  20         0.0109404973
      5   3  20   0         0.0109404973
      6   7  10  10        -0.0108865217
      7   6  10  10        -0.0108865217
      4   7   7   0        -0.0107940645
      7   4   0   7        -0.0107940645
      3   7   0  14        -0.0107362163
      7   3  14   0        -0.0107362163
      6   7   6  10        -0.0107065095
      7   6  10   6        -0.0107065095
      6   6  16  16        -0.0106803097
      4   4   4  15        -0.0106406723
      4   4  15   4        -0.0106406723
      4   7   0   9         0.0106340222
      7   4   9   0         0.0106340222
      4   5   7  12        -0.0106267086
      5   4  12   7        -0.0106267086
      7   7   4   4        -0.0106132048
      3   3  14  14        -0.0105768718
      7   7   0   6         0.0105178383
      7   7   6   0         0.0105178383
      3   6   1   9         0.0104914339
      6   3   9   1         0.0104914339
      5   5  15  15        -0.0104763696
      3   7   5  10        -0.0103998574
      7   3  10   5        -0.0103998574
      4   6  14   3        -0.0103990223
      6   4   3  14        -0.0103990223
      3   3   5   5        -0.0102693743
      4   7   7  10        -0.0102295550
      7   4  10   7        -0.0102295550
      3   3   3   3        -0.0101861806
      4   4  18  18        -0.0101063968
      3   5  13   5         0.0100837713
      5   3   5  13         0.0100837713
      3   5   3   2         0.0100465314
      5   3   2   3         0.0100465314
      5   7   0   3         0.0100344976
      7   5   3   0         0.0100344976
      4   4  15  15        -0.0100232779
      3   7   0  25         0.0100125226
      7   3  25   0         0.0100125226
      6   6  19  19        -0.0099452977
      3   4  13   4        -0.0099198805
      4   3   4  13        -0.0099198805
      5   5   4  15        -0.0098705987
      5   5  15   4        -0.0098705987
      6   6   6   6        -0.0098521663
      2   5   1  12        -0.0098474499
      5   2  12   1        -0.0098474499
      3   5   2   3         0.0098101695
      5   3   3   2         0.0098101695
      4   4  14  14        -0.0097187086
      6   6  15  15        -0.0096552984
      4   6   7   6        -0.0096344220
      6   4   6   7        -0.0096344220
      4   6  18  19        -0.0096282353
      6   4  19  18        -0.0096282353
      4   6  14  16        -0.0095942174
      6   4  16  14        -0.0095942174
      4   6   3  14        -0.0095786072
      6   4  14   3        -0.0095786072
      6   7   9   8         0.0095598776
      7   6   8   9         0.0095598776
      3   7  13   8        -0.0095452731
      7   3   8  13        -0.0095452731
      2   2   4   4        -0.0094799139
      7   7   9   9        -0.0094645033
      3   5  12   2        -0.0094351848
      5   3   2  12        -0.0094351848
      5   7   3   0         0.0094290107
      7   5   0   3         0.0094290107
      4   6  15  17        -0.0094085321
      6   4  17  15        -0.0094085321
      4   6  16  14        -0.0093882397
      6   4  14  16        -0.0093882397
      4   4   7   7        -0.0093845212
      6   6  17  17        -0.0093785619
      6   7   4   4         0.0093659317
      7   6   4   4         0.0093659317
      3   5   5  12        -0.0093108138
      5   3  12   5        -0.0093108138
      4   6  17   4        -0.0092970583
      6   4   4  17        -0.0092970583
      5   7   5   9         0.0092462639
      7   5   9   5         0.0092462639
      4   4  19  19        -0.0092238513
      3   6  13   7        -0.0092223989
      6   3   7  13        -0.0092223989
      2   5  11   5         0.0091699385
      5   2   5  11         0.0091699385
      2   5  12  12        -0.0091041819
      5   2  12  12        -0.0091041819
      2   2  13  13        -0.0090682422
      3   5  11  12        -0.0090619109
      5   3  12  11        -0.0090619109
      3   3   2  14        -0.0090581873
      3   3  14   2        -0.0090581873
      5   6   4  16         0.0090491327
      6   5  16   4         0.0090491327
      7   7   8   9        -0.0090360853
      7   7   9   8        -0.0090360853
      6   6   4  15        -0.0090284641
      6   6  15   4        -0.0090284641
      3   4   1   6        -0.0090199917
      4   3   6   1        -0.0090199917
      4   4   7   9         0.0089923233
      4   4   9   7         0.0089923233
      6   6   3  16        -0.0089766910
      6   6  16   3        -0.0089766910
      2   7   0  16        -0.0089521027
      7   2  16   0        -0.0089521027
      2   7  10  12        -0.0089086667
      7   2  12  10        -0.0089086667
      5   6  15  16         0.0088791736
      6   5  16  15         0.0088791736
      3   7  14   0        -0.0088716229
      7   3   0  14        -0.0088716229
      3   3   0  10        -0.0088477541
      3   3  10   0        -0.0088477541
      2   4   0  19         0.0088156017
      4   2  19   0         0.0088156017
      6   6  18  18        -0.0088118233
      4   5  14   4         0.0087864422
      5   4   4  14         0.0087864422
      4   7   6   9        -0.0087363575
      7   4   9   6        -0.0087363575
      5   5   3   3        -0.0087352710
      4   4   4   6        -0.0087310153
      4   4   6   4        -0.0087310153
      4   4   0   0        -0.0087073797
      7   7  18  18        -0.0086915505
      4   4  16  16        -0.0086893032
      4   5   9  12         0.0086171632
      5   4  12   9         0.0086171632
      3   6   4   2        -0.0084671926
      6   3   2   4        -0.0084671926
      2   4  11   6        -0.0084644285
      4   2   6  11        -0.0084644285
      2   6  11   7        -0.0084289987
      6   2   7  11        -0.0084289987
      2   7  11   8        -0.0084053623
      7   2   8  11        -0.0084053623
      7   7  20  20        -0.0083949761
      2   2  12  13        -0.0083868048
      2   2  13  12        -0.0083868048
      2   2   0  10        -0.0083577986
      2   2  10   0        -0.0083577986
      6   7   7   9        -0.0083568048
      7   6   9   7        -0.0083568048
      6   6   2  14        -0.0083529164
      6   6  14   2        -0.0083529164
      4   6   6   9         0.0083308588
      6   4   9   6         0.0083308588
      3   3   4   4        -0.0083229759
      4   7   4  20         0.0083164975
      7   4  20   4         0.0083164975
      4   5  18  20        -0.0082446833
      5   4  20  18        -0.0082446833
      3   4   5   9         0.0082116327
      4   3   9   5         0.0082116327
      4   4   2  14        -0.0081135077
      4   4  14   2        -0.0081135077
      2   7  10   1        -0.0080884178
      7   2   1  10        -0.0080884178
      7   7   1   1        -0.0080425045
      5   6  12  10        -0.0080398848
      6   5  10  12        -0.0080398848
      7   7   6  10         0.0080306185
      7   7  10   6         0.0080306185
      2   4  13   9         0.0080301591
      4   2   9  13         0.0080301591
      7   7   0   4        -0.0080185228
      7   7   4   0        -0.0080185228
      3   6   5   4        -0.0080140400
      6   3   4   5        -0.0080140400
      4   7   4   9        -0.0079847299
      7   4   9   4        -0.0079847299
      3   6  13   9         0.0079837639
      6   3   9  13         0.0079837639
      2   2  10  10        -0.0079696618
      3   5   3  14         0.0079682262
      5   3  14   3         0.0079682262
      5   5   3  12         0.0079158202
      5   5  12   3         0.0079158202
      3   5  14   3         0.0078781384
      5   3   3  14         0.0078781384
      2   2  11  11        -0.0078656110
      3   3  13  13        -0.0078368237
      7   7   3   3        -0.0078364617
      4   5   4  21         0.0078352769
      5   4  21   4         0.0078352769
      5   7   4  18         0.0078135302
      7   5  18   4         0.0078135302
      3   3   1  13        -0.0077963353
      3   3  13   1        -0.0077963353
      3   7   1   9        -0.0077570415
      7   3   9   1        -0.0077570415
      4   6   7   4        -0.0077453316
      6   4   4   7        -0.0077453316
      5   5   1   1        -0.0077426384
      4   4  17  17        -0.0077342680
      4   6  17  15        -0.0077073867
      6   4  15  17        -0.0077073867
      2   6   0  18         0.0076835066
      6   2  18   0         0.0076835066
      5   6  20  19        -0.0076701857
      6   5  19  20        -0.0076701857
      3   6  15  14        -0.0076579280
      6   3  14  15        -0.0076579280
      4   4   0   4         0.0075791188
      4   4   4   0         0.0075791188
      3   5   5   1         0.0075759777
      5   3   1   5         0.0075759777
      4   6  19  18        -0.0075608889
      6   4  18  19        -0.0075608889
      5   5  14  14        -0.0075484055
      3   6   4  14        -0.0075329066
      6   3  14   4        -0.0075329066
      3   3  16  16        -0.0075295504
      4   6   9   6         0.0074804286
      6   4   6   9         0.0074804286
      5   6  15   3         0.0074757671
      6   5   3  15         0.0074757671
      3   4  13   6        -0.0074732156
      4   3   6  13        -0.0074732156
      4   5  14  15         0.0074687792
      5   4  15  14         0.0074687792
      3   7  10   2        -0.0073915978
      7   3   2  10        -0.0073915978
      5   6   1   4         0.0073516816
      6   5   4   1         0.0073516816
      5   7  13   0        -0.0073360707
      7   5   0  13        -0.0073360707
      3   3   9   9        -0.0073332699
      6   7   9   9         0.0073131760
      7   6   9   9         0.0073131760
      2   4   1   9         0.0073082233
      4   2   9   1         0.0073082233
      6   6   1   1        -0.0073034464
      5   5  21  21        -0.0072755235
      3   4   4   3        -0.0071987967
      4   3   3   4        -0.0071987967
      2   4   2   6        -0.0071778489
      4   2   6   2        -0.0071778489
      3   5   3   5         0.0071755360
      5   3   5   3         0.0071755360
      5   5   2  14        -0.0071323810
      5   5  14   2        -0.0071323810
      2   5   2   5         0.0070890021
      5   2   5   2         0.0070890021
      2   2   4  15        -0.0070836442
      2   2  15   4        -0.0070836442
      3   3   2   5        -0.0070794870
      3   3   5   2        -0.0070794870
      2   2  20  20        -0.0070362554
      3   5  14  16         0.0070278717
      5   3  16  14         0.0070278717
      5   7  15  18         0.0070103742
      7   5  18  15         0.0070103742
      2   6  13   4        -0.0069994911
      6   2   4  13        -0.0069994911
      2   2  15  15        -0.0069668827
      2   7   2   8        -0.0069513326
      7   2   8   2        -0.0069513326
      7   7  25  25        -0.0068875978
      2   6   2   7        -0.0068767218
      6   2   7   2        -0.0068767218
      2   5  12  13        -0.0068751842
      5   2  13  12        -0.0068751842
      7   7   1  12        -0.0068537538
      7   7  12   1        -0.0068537538
      3   5  16  14         0.0068476806
      5   3  14  16         0.0068476806
      5   5  11  11        -0.0068458142
      2   4  13   7        -0.0068397063
      4   2   7  13        -0.0068397063
      6   7  22   0        -0.0068241701
      7   6   0  22        -0.0068241701
      3   4   0   3         0.0068232214
      4   3   3   0         0.0068232214
      2   4  12   9         0.0068156741
      4   2   9  12         0.0068156741
      2   3   2   3        -0.0067863595
      3   2   3   2        -0.0067863595
      3   6  19   0         0.0067849475
      6   3   0  19         0.0067849475
      3   4   5   7        -0.0067845672
      4   3   7   5        -0.0067845672
      3   5  14  12        -0.0067562188
      5   3  12  14        -0.0067562188
      3   6   2   6        -0.0067511603
      6   3   6   2        -0.0067511603
      6   6  11  11        -0.0067042388
      7   7   2   2        -0.0066973704
      4   5  16  17         0.0066760145
      5   4  17  16         0.0066760145
      3   7  12  20         0.0066709102
      7   3  20  12         0.0066709102
      4   5   3   9        -0.0066612874
      5   4   9   3        -0.0066612874
      4   4   3  16        -0.0066525053
      4   4  16   3        -0.0066525053
      5   6  17  14         0.0066368684
      6   5  14  17         0.0066368684
      3   6  14   4        -0.0066258438
      6   3   4  14        -0.0066258438
      6   6   0  10        -0.0065714493
      6   6  10   0        -0.0065714493
      3   3  10  10        -0.0065652249
      2   6   4   1        -0.0065494566
      6   2   1   4        -0.0065494566
      6   7   7   7        -0.0065401774
      7   6   7   7        -0.0065401774
      2   6   4  12        -0.0065295313
      6   2  12   4        -0.0065295313
      3   6   2  22        -0.0064944523
      6   3  22   2        -0.0064944523
      2   7  10  13        -0.0064874738
      7   2  13  10        -0.0064874738
      3   3  20  20        -0.0064862420
      2   2   1  13        -0.0064817034
      2   2  13   1        -0.0064817034
      3   6   3   7        -0.0064759748
      6   3   7   3        -0.0064759748
      2   7   0  13        -0.0064730948
      7   2  13   0        -0.0064730948
      3   3   3  16        -0.0064659634
      3   3  16   3        -0.0064659634
      5   7  12   6         0.0064504455
      7   5   6  12         0.0064504455
      3   4  15  16        -0.0064422082
      4   3  16  15        -0.0064422082
      5   6   3   4         0.0064329681
      6   5   4   3         0.0064329681
      5   7   0  16         0.0064280862
      7   5  16   0         0.0064280862
      3   3  19  19        -0.0064227812
      3   5   0   9         0.0064223980
      5   3   9   0         0.0064223980
      3   4   3   4        -0.0064155597
      4   3   4   3        -0.0064155597
      3   7  14  10        -0.0064048283
      7   3  10  14        -0.0064048283
      6   7   0  15        -0.0063960313
      7   6  15   0        -0.0063960313
      5   5  17  17        -0.0063885279
      6   6   9  17         0.0063639549
      6   6  17   9         0.0063639549
      3   6   5   6        -0.0063599331
      6   3   6   5        -0.0063599331
      2   7   3  10        -0.0063532243
      7   2  10   3        -0.0063532243
      4   4   9  17         0.0063178738
      4   4  17   9         0.0063178738
      5   7  20  25        -0.0062981627
      7   5  25  20        -0.0062981627
      2   6  13   6        -0.0062970628
      6   2   6  13        -0.0062970628
      2   7  10   3        -0.0062938245
      7   2   3  10        -0.0062938245
      4   4  21  21        -0.0062872248
      3   6   4   5        -0.0062792668
      6   3   5   4        -0.0062792668
      3   3  15  15        -0.0062780173
      6   6  23  23        -0.0062757814
      2   4   1   7        -0.0062683744
      4   2   7   1        -0.0062683744
      7   7   7   8        -0.0062525878
      7   7   8   7        -0.0062525878
      6   7   4  10        -0.0062461468
      7   6  10   4        -0.0062461468
      3   3  18  18        -0.0062314943
      3   4   3   6        -0.0062231592
      4   3   6   3        -0.0062231592
      3   7   3   9        -0.0062219320
      7   3   9   3        -0.0062219320
      2   2   1  12        -0.0062124288
      2   2  12   1        -0.0062124288
      6   6  21  21        -0.0062102439
      4   7  15  20         0.0062076920
      7   4  20  15         0.0062076920
      3   6   3   9         0.0061964231
      6   3   9   3         0.0061964231
      3   5   0  17        -0.0061832543
      5   3  17   0        -0.0061832543
      5   5   5  21        -0.0061785135
      5   5  21   5        -0.0061785135
      2   6   4  13        -0.0061700478
      6   2  13   4        -0.0061700478
      4   6   2  16        -0.0061548944
      6   4  16   2        -0.0061548944
      3   7  11  10        -0.0061519028
      7   3  10  11        -0.0061519028
      3   4   2   9         0.0061492505
      4   3   9   2         0.0061492505
      4   5  15  11        -0.0061435815
      5   4  11  15        -0.0061435815
      3   4   4  13        -0.0061136988
      4   3  13   4        -0.0061136988
      3   6  21   4        -0.0060919169
      6   3   4  21        -0.0060919169
      7   7   5  11         0.0060730970
      7   7  11   5         0.0060730970
      3   4  18   0         0.0060493078
      4   3   0  18         0.0060493078
      3   4   2   7        -0.0060343234
      4   3   7   2        -0.0060343234
      3   3  11  11        -0.0060303396
      3   5  20   0         0.0059978476
      5   3   0  20         0.0059978476
      6   6  10  10        -0.0059956614
      3   3  17  17        -0.0059860705
      7   7   5   5        -0.0059662785
      2   5  12  28        -0.0059589307
      5   2  28  12        -0.0059589307
      4   6  16  11         0.0059469271
      6   4  11  16         0.0059469271
      2   6   1   6        -0.0059428412
      6   2   6   1        -0.0059428412
      3   4  17  14        -0.0059364307
      4   3  14  17        -0.0059364307
      2   3   1   5        -0.0059321504
      3   2   5   1        -0.0059321504
      2   5   0  26        -0.0059286658
      5   2  26   0        -0.0059286658
      2   2   1   1        -0.0059259036
      2   5   2   2         0.0059078425
      5   2   2   2         0.0059078425
      3   5  10  20         0.0059045924
      5   3  20  10         0.0059045924
      5   6  12  22        -0.0059010132
      6   5  22  12        -0.0059010132
      6   6   6  10        -0.0058920803
      6   6  10   6        -0.0058920803
      3   6   7   1        -0.0058887270
      6   3   1   7        -0.0058887270
      5   7  21  20        -0.0058227145
      7   5  20  21        -0.0058227145
      6   6   3  13        -0.0058227080
      6   6  13   3        -0.0058227080
      7   7  13  13        -0.0058106076
      3   6  11   6        -0.0058094019
      6   3   6  11        -0.0058094019
      2   3   3   2        -0.0057451867
      3   2   2   3        -0.0057451867
      4   5   6   2         0.0057441855
      5   4   2   6         0.0057441855
      5   7  10  12        -0.0057433975
      7   5  12  10        -0.0057433975
      4   6  11  16         0.0057420359
      6   4  16  11         0.0057420359
      3   4   2  23        -0.0057414041
      4   3  23   2        -0.0057414041
      5   6   2   7         0.0057342997
      6   5   7   2         0.0057342997
      4   6   7  10        -0.0057320789
      6   4  10   7        -0.0057320789
      3   6   9   1         0.0057168632
      6   3   1   9         0.0057168632
      3   7  10  25         0.0057133969
      7   3  25  10         0.0057133969
      3   6   3  23        -0.0057041509
      6   3  23   3        -0.0057041509
      3   3   3  12         0.0056960807
      3   3  12   3         0.0056960807
      3   6  17  16        -0.0056850400
      6   3  16  17        -0.0056850400
      3   7  13   9        -0.0056768046
      7   3   9  13        -0.0056768046
      4   6  15   9         0.0056662884
      6   4   9  15         0.0056662884
      7   7  19  19        -0.0056589384
      3   5  12  21         0.0056504462
      5   3  21  12         0.0056504462
      3   7  10   5        -0.0056292583
      7   3   5  10        -0.0056292583
      4   4   1   1        -0.0056243766
      2   6   1   4        -0.0056241176
      6   2   4   1        -0.0056241176
      3   6  20  18         0.0056206228
      6   3  18  20         0.0056206228
      6   6  13  13        -0.0055968780
      3   6  14  15        -0.0055946975
      6   3  15  14        -0.0055946975
      2   6  12   4        -0.0055447552
      6   2   4  12        -0.0055447552
      3   5   2  16         0.0055407841
      5   3  16   2         0.0055407841
      4   4  11  11        -0.0055392997
      7   7   1   3        -0.0055266613
      7   7   3   1        -0.0055266613
      4   5   3  17         0.0055249971
      5   4  17   3         0.0055249971
      5   6   9   2        -0.0055207774
      6   5   2   9        -0.0055207774
      5   7   0  12        -0.0055066518
      7   5  12   0        -0.0055066518
      7   7   7   7        -0.0054947480
      3   6   2   4        -0.0054927660
      6   3   4   2        -0.0054927660
      3   7   9   3        -0.0054865160
      7   3   3   9        -0.0054865160
      3   6  12  23         0.0054805503
      6   3  23  12         0.0054805503
      2   2  18  18        -0.0054800884
      2   3  14   3        -0.0054726619
      3   2   3  14        -0.0054726619
      4   7  19  12         0.0054600591
      7   4  12  19         0.0054600591
      7   7   8  20         0.0054476027
      7   7  20   8         0.0054476027
      7   7   0  26        -0.0054473029
      7   7  26   0        -0.0054473029
      6   6   4  10        -0.0054451407
      6   6  10   4        -0.0054451407
      7   7   3  12        -0.0054443665
      7   7  12   3        -0.0054443665
      4   7  18  25        -0.0054414567
      7   4  25  18        -0.0054414567
      3   7  10  14        -0.0054226630
      7   3  14  10        -0.0054226630
      2   4  12  17        -0.0054157243
      4   2  17  12        -0.0054157243
      6   6  24  24        -0.0054032349
      5   5  22  22        -0.0054028998
      2   5   5  11         0.0054016286
      5   2  11   5         0.0054016286
      2   3  13   5        -0.0054012899
      3   2   5  13        -0.0054012899
      4   5   8  12         0.0053994938
      5   4  12   8         0.0053994938
      5   5  13  13        -0.0053891878
      6   6  11  14         0.0053889428
      6   6  14  11         0.0053889428
      3   3  21  21        -0.0053882908
      5   6  16  15         0.0053840802
      6   5  15  16         0.0053840802
      3   4   3  22        -0.0053799148
      4   3  22   3        -0.0053799148
      3   4  12  15        -0.0053619378
      4   3  15  12        -0.0053619378
      2   4  19   0         0.0053616133
      4   2   0  19         0.0053616133
      4   4  12  12        -0.0053587246
      3   5   0   8        -0.0053586267
      5   3   8   0        -0.0053586267
      5   6   2  23         0.0053492339
      6   5  23   2         0.0053492339
      5   5   3  16        -0.0053388565
      5   5  16   3        -0.0053388565
      2   5   3   3         0.0053291442
      5   2   3   3         0.0053291442
      6   6  12  12        -0.0053281968
      5   5  16  16        -0.0053215678
      3   3   5  14        -0.0052999225
      3   3  14   5        -0.0052999225
      3   5  12  14        -0.0052997793
      5   3  14  12        -0.0052997793
      2   3   0   9        -0.0052961232
      3   2   9   0        -0.0052961232
      2   3   3  14        -0.0052900847
      3   2  14   3        -0.0052900847
      2   2   7   7        -0.0052871009
      5   6   0  18        -0.0052856337
      6   5  18   0        -0.0052856337
      2   5   4  15        -0.0052823217
      5   2  15   4        -0.0052823217
      2   6  13  10        -0.0052740663
      6   2  10  13        -0.0052740663
      4   5  22   2         0.0052732038
      5   4   2  22         0.0052732038
      2   3  18  19        -0.0052708326
      3   2  19  18        -0.0052708326
      3   3   3  13        -0.0052684107
      3   3  13   3        -0.0052684107
      4   6   2  13        -0.0052573343
      6   4  13   2        -0.0052573343
      4   7   3  11        -0.0052500479
      7   4  11   3        -0.0052500479
      4   7   3   2         0.0052493807
      7   4   2   3         0.0052493807
      6   6   5   5        -0.0052363147
      2   4   9   1         0.0052360285
      4   2   1   9         0.0052360285
      3   4   4   1        -0.0052354745
      4   3   1   4        -0.0052354745
      4   4  13  13        -0.0052255209
      2   7  24   0        -0.0052210053
      7   2   0  24        -0.0052210053
      4   4  23  23        -0.0052186740
      5   7   5   7         0.0052079876
      7   5   7   5         0.0052079876
      5   6  16   4         0.0052029407
      6   5   4  16         0.0052029407
      3   3   7   7        -0.0051963328
      2   5  12  24        -0.0051936640
      5   2  24  12        -0.0051936640
      5   7   2   9         0.0051898038
      7   5   9   2         0.0051898038
      3   4   9   5         0.0051858377
      4   3   5   9         0.0051858377
      2   4   4  21        -0.0051826828
      4   2  21   4        -0.0051826828
      2   7   4  18         0.0051818681
      7   2  18   4         0.0051818681
      3   6  12  17        -0.0051807844
      6   3  17  12        -0.0051807844
      2   5  28  12        -0.0051755340
      5   2  12  28        -0.0051755340
      2   6   1  10        -0.0051730146
      6   2  10   1        -0.0051730146
      2   7  11   9        -0.0051515681
      7   2   9  11        -0.0051515681
      3   6  14  22        -0.0051407326
      6   3  22  14        -0.0051407326
      6   7  10   4        -0.0051394587
      7   6   4  10        -0.0051394587
      4   7   8   0         0.0051336265
      7   4   0   8         0.0051336265
      2   2   5   5        -0.0051219353
      3   5  16   2         0.0051136538
      5   3   2  16         0.0051136538
      6   7  19  25        -0.0051117893
      7   6  25  19        -0.0051117893
      2   3   4   9         0.0051091416
      3   2   9   4         0.0051091416
      4   4  22  22        -0.0051082889
      4   6  21  24         0.0051076037
      6   4  24  21         0.0051076037
      4   7   8  10         0.0051050174
      7   4  10   8         0.0051050174
      3   3   1   3        -0.0051029392
      3   3   3   1        -0.0051029392
      3   7   3   8        -0.0050937239
      7   3   8   3        -0.0050937239
      6   6  22  22        -0.0050898494
      6   7  17  20         0.0050885641
      7   6  20  17         0.0050885641
      4   7   9   4        -0.0050818807
      7   4   4   9        -0.0050818807
      2   3  19  18        -0.0050764474
      3   2  18  19        -0.0050764474
      6   7   3  18        -0.0050715638
      7   6  18   3        -0.0050715638
      2   7   0  24        -0.0050690321
      7   2  24   0        -0.0050690321
      2   6  18   0         0.0050638921
      6   2   0  18         0.0050638921
      4   5   2  15         0.0050635822
      5   4  15   2         0.0050635822
      4   5  11  15        -0.0050633488
      5   4  15  11        -0.0050633488
      5   6  11  17        -0.0050620930
      6   5  17  11        -0.0050620930
      2   3   2  13        -0.0050557230
      3   2  13   2        -0.0050557230
      7   7   0  15        -0.0050522235
      7   7  15   0        -0.0050522235
      3   4  10  18         0.0050395641
      4   3  18  10         0.0050395641
      4   6  16   2        -0.0050302118
      6   4   2  16        -0.0050302118
      2   2  19  19        -0.0050290734
      3   5  12  11        -0.0050264775
      5   3  11  12        -0.0050264775
      3   4  14  17        -0.0050208460
      4   3  17  14        -0.0050208460
      2   3   2   1        -0.0050155487
      3   2   1   2        -0.0050155487
      3   3  23  23        -0.0049991822
      2   2   9   9        -0.0049963611
      5   5   9   9        -0.0049905162
      3   4  11   7        -0.0049897208
      4   3   7  11        -0.0049897208
      2   3   0  20        -0.0049810741
      3   2  20   0        -0.0049810741
      3   3  22  22        -0.0049774746
      3   4  12   4        -0.0049664226
      4   3   4  12        -0.0049664226
      2   3  14  16        -0.0049552824
      3   2  16  14        -0.0049552824
      3   6   9   3         0.0049472606
      6   3   3   9         0.0049472606
      3   4   9   2         0.0049382567
      4   3   2   9         0.0049382567
      3   5   5   3         0.0049366050
      5   3   3   5         0.0049366050
      5   7  24   0        -0.0049249180
      7   5   0  24        -0.0049249180
      5   6  24   4        -0.0049199366
      6   5   4  24        -0.0049199366
      3   6  16  17        -0.0049191396
      6   3  17  16        -0.0049191396
      2   4   9  13         0.0049137761
      4   2  13   9         0.0049137761
      6   7  19  11        -0.0049125191
      7   6  11  19        -0.0049125191
      2   2   2   2        -0.0049012369
      3   3   0  26         0.0048933444
      3   3  26   0         0.0048933444
      5   6   3  22         0.0048879080
      6   5  22   3         0.0048879080
      4   5   9   3        -0.0048813333
      5   4   3   9        -0.0048813333
      2   2  21  21        -0.0048769971
      4   7  19  18         0.0048726055
      7   4  18  19         0.0048726055
      2   3  13   2        -0.0048715482
      3   2   2  13        -0.0048715482
      3   6  15  11         0.0048640832
      6   3  11  15         0.0048640832
      4   5  15  21         0.0048594583
      5   4  21  15         0.0048594583
      5   7  16   0         0.0048538904
      7   5   0  16         0.0048538904
      3   6  11  15         0.0048508281
      6   3  15  11         0.0048508281
      4   7   0  17        -0.0048470861
      7   4  17   0        -0.0048470861
      3   3   5  11        -0.0048433329
      3   3  11   5        -0.0048433329
      3   6   5  10        -0.0048348106
      6   3  10   5        -0.0048348106
      3   6   9  13         0.0048315926
      6   3  13   9         0.0048315926
      4   6   5   1        -0.0048239953
      6   4   1   5        -0.0048239953
      3   3   6   6        -0.0048217373
      7   7   6   6        -0.0048167271
      2   5   8  20         0.0048025385
      5   2  20   8         0.0048025385
      2   5   0   0         0.0048002608
      5   2   0   0         0.0048002608
      2   5   4  27        -0.0047786130
      5   2  27   4        -0.0047786130
      5   7   1   4        -0.0047762205
      7   5   4   1        -0.0047762205
      2   5  14  14         0.0047742494
      5   2  14  14         0.0047742494
      5   5   1  13        -0.0047691166
      5   5  13   1        -0.0047691166
      3   4  14   9         0.0047673065
      4   3   9  14         0.0047673065
      3   4  16  15        -0.0047665023
      4   3  15  16        -0.0047665023
      3   6  10  19         0.0047659782
      6   3  19  10         0.0047659782
      5   5   2   5        -0.0047614098
      5   5   5   2        -0.0047614098
      2   7   2   9        -0.0047606295
      7   2   9   2        -0.0047606295
      4   6  24  21         0.0047594662
      6   4  21  24         0.0047594662
      6   6   0   6        -0.0047552256
      6   6   6   0        -0.0047552256
      3   7   9   1        -0.0047457511
      7   3   1   9        -0.0047457511
      4   6   1   5        -0.0047426278
      6   4   5   1        -0.0047426278
      2   6  10  18         0.0047371149
      6   2  18  10         0.0047371149
      5   7   3  10         0.0047253566
      7   5  10   3         0.0047253566
      5   5  11  21         0.0047250230
      5   5  21  11         0.0047250230
      2   5  12  35        -0.0047186273
      5   2  35  12        -0.0047186273
      2   3  11  13        -0.0047084317
      3   2  13  11        -0.0047084317
      5   6   4  12        -0.0047049868
      6   5  12   4        -0.0047049868
      4   6   0   9        -0.0046978146
      6   4   9   0        -0.0046978146
      2   7  12  32        -0.0046960741
      7   2  32  12        -0.0046960741
      4   7  18  11        -0.0046936410
      7   4  11  18        -0.0046936410
      3   6   4  21        -0.0046903994
      6   3  21   4        -0.0046903994
      2   3  16  14        -0.0046851266
      3   2  14  16        -0.0046851266
      5   5   0   4         0.0046782942
      5   5   4   0         0.0046782942
      4   6  13   2        -0.0046768987
      6   4   2  13        -0.0046768987
      4   5   4  14         0.0046687941
      5   4  14   4         0.0046687941
      4   5   9  24         0.0046657841
      5   4  24   9         0.0046657841
      4   4  24  24        -0.0046644174
      3   6  17   3        -0.0046565540
      6   3   3  17        -0.0046565540
      4   5  23  12        -0.0046545105
      5   4  12  23        -0.0046545105
      2   4   2   4        -0.0046543705
      4   2   4   2        -0.0046543705
      3   4  15   3        -0.0046483671
      4   3   3  15        -0.0046483671
      1   1  42  42        -0.0046459050
      6   6   1  13        -0.0046433187
      6   6  13   1        -0.0046433187
      0   0  42  42        -0.0046424866
      0   1  42  43        -0.0046405395
      1   0  43  42        -0.0046405395
      0   1  43  42        -0.0046404737
      1   0  42  43        -0.0046404737
      1   1  43  43        -0.0046392967
      0   0  43  43        -0.0046359611
      5   6  21  17         0.0046346804
      6   5  17  21         0.0046346804
      2   6  12  10        -0.0046322564
      6   2  10  12        -0.0046322564
      2   5   3  12        -0.0045950148
      5   2  12   3        -0.0045950148
      3   4  20  19         0.0045670053
      4   3  19  20         0.0045670053
      3   4  21   9         0.0045656961
      4   3   9  21         0.0045656961
      2   6  15  12        -0.0045503106
      6   2  12  15        -0.0045503106
      4   5  17  16         0.0045503044
      5   4  16  17         0.0045503044
      2   7  11   7        -0.0045408836
      7   2   7  11        -0.0045408836
      2   2   6   6        -0.0045358591
      4   6  21   1        -0.0045302162
      6   4   1  21        -0.0045302162
      2   2  17  17        -0.0045262751
      4   6  22  23        -0.0045248544
      6   4  23  22        -0.0045248544
      3   6   7  13        -0.0045209286
      6   3  13   7        -0.0045209286
      2   4  12   7        -0.0045207477
      4   2   7  12        -0.0045207477
      3   4  12  22         0.0045203441
      4   3  22  12         0.0045203441
      3   6   6  11        -0.0045155664
      6   3  11   6        -0.0045155664
      7   7   1  13        -0.0045118002
      7   7  13   1        -0.0045118002
      4   6   9  10         0.0045004498
      6   4  10   9         0.0045004498
      6   7  16  18        -0.0044982343
      7   6  18  16        -0.0044982343
      5   7   9   2         0.0044960247
      7   5   2   9         0.0044960247
      2   5  14   5         0.0044959920
      5   2   5  14         0.0044959920
      5   7  24  10        -0.0044922692
      7   5  10  24        -0.0044922692
      3   5  12  25        -0.0044921648
      5   3  25  12        -0.0044921648
      4   5  19  26         0.0044896201
      5   4  26  19         0.0044896201
      4   7   9   6        -0.0044806895
      7   4   6   9        -0.0044806895
      6   7   3   3         0.0044778603
      7   6   3   3         0.0044778603
      5   5  12  24        -0.0044770094
      5   5  24  12        -0.0044770094
      5   6   9  14        -0.0044693868
      6   5  14   9        -0.0044693868
      6   6   0  15         0.0044642861
      6   6  15   0         0.0044642861
      3   5  15  17         0.0044618971
      5   3  17  15         0.0044618971
      5   6  21   9        -0.0044564715
      6   5   9  21        -0.0044564715
      2   3  11   1        -0.0044450035
      3   2   1  11        -0.0044450035
[...]
      4   1  26  38         0.0000012199
      0   4  25  26        -0.0000012196
      4   0  26  25        -0.0000012196
      2   7  43   6        -0.0000012160
      7   2   6  43        -0.0000012160
      0   7  23  42        -0.0000012110
      7   0  42  23        -0.0000012110
      1   2  13  19        -0.0000012103
      2   1  19  13        -0.0000012103
      1   7  42   6        -0.0000011987
      7   1   6  42        -0.0000011987
      1   4   8   2        -0.0000011957
      4   1   2   8        -0.0000011957
      0   5  18  43        -0.0000011950
      5   0  43  18        -0.0000011950
      0   4  42   4         0.0000011941
      4   0   4  42         0.0000011941
      0   1  26  17         0.0000011782
      1   0  17  26         0.0000011782
      0   6  20  14        -0.0000011595
      6   0  14  20        -0.0000011595
      1   5  21  18        -0.0000011544
      5   1  18  21        -0.0000011544
      1   3  19  21        -0.0000011467
      3   1  21  19        -0.0000011467
      1   4  31  20         0.0000011456
      4   1  20  31         0.0000011456
      0   0  19  19        -0.0000011248
      0   5  30  18         0.0000011186
      5   0  18  30         0.0000011186
      1   4  18   4         0.0000011071
      4   1   4  18         0.0000011071
      0   3  20  15        -0.0000011012
      3   0  15  20        -0.0000011012
      0   4  32   2        -0.0000010957
      4   0   2  32        -0.0000010957
      0   7  42  39        -0.0000010903
      7   0  39  42        -0.0000010903
      0   1  31  16        -0.0000010783
      1   0  16  31        -0.0000010783
      2   7  23  42        -0.0000010747
      7   2  42  23        -0.0000010747
      0   7  18  26         0.0000010357
      7   0  26  18         0.0000010357
      0   0   5  31         0.0000010180
      0   0  31   5         0.0000010180
      0   6  43  26         0.0000010160
      6   0  26  43         0.0000010160
      1   3  24  18         0.0000010134
      3   1  18  24         0.0000010134
      5   7  40  39        -0.0000010093
      7   5  39  40        -0.0000010093
      0   4  25  37        -0.0000010062
      4   0  37  25        -0.0000010062
      0   5  31  14         0.0000010010
      5   0  14  31         0.0000010010
      4   7  43  25         0.0000009994
      7   4  25  43         0.0000009994
      0   1  19  41         0.0000009962
      1   0  41  19         0.0000009962
      1   2   5   1        -0.0000009962
      2   1   1   5        -0.0000009962
      1   2  26  23        -0.0000009910
      2   1  23  26        -0.0000009910
      0   1  41  19         0.0000009737
      1   0  19  41         0.0000009737
      6   7  34  42         0.0000009673
      7   6  42  34         0.0000009673
      2   5  23  29        -0.0000009655
      5   2  29  23        -0.0000009655
      1   6   1  29         0.0000009536
      6   1  29   1         0.0000009536
      1   7  43  33         0.0000009441
      7   1  33  43         0.0000009441
      1   1  19  19        -0.0000009404
      4   6  19  43        -0.0000009375
      6   4  43  19        -0.0000009375
      1   4  42   8        -0.0000009351
      4   1   8  42        -0.0000009351
      1   3  15  26         0.0000009335
      3   1  26  15         0.0000009335
      0   4  29  41        -0.0000009329
      4   0  41  29        -0.0000009329
      1   5  27   8         0.0000009304
      5   1   8  27         0.0000009304
      3   7  42  32        -0.0000009298
      7   3  32  42        -0.0000009298
      1   3  11  31        -0.0000009260
      3   1  31  11        -0.0000009260
      2   6  43   4         0.0000009201
      6   2   4  43         0.0000009201
      0   3  19  13         0.0000009061
      3   0  13  19         0.0000009061
      2   5  43   1        -0.0000009041
      5   2   1  43        -0.0000009041
      0   4  43   9        -0.0000008943
      4   0   9  43        -0.0000008943
      4   6  40  28         0.0000008939
      6   4  28  40         0.0000008939
      0   4  42   0        -0.0000008936
      4   0   0  42        -0.0000008936
      3   4  29  42         0.0000008936
      4   3  42  29         0.0000008936
      0   5  42  36        -0.0000008881
      5   0  36  42        -0.0000008881
      1   6  22  14        -0.0000008816
      6   1  14  22        -0.0000008816
      0   3  31  16        -0.0000008741
      3   0  16  31        -0.0000008741
      0   4  23  18        -0.0000008684
      4   0  18  23        -0.0000008684
      0   4  42   6        -0.0000008653
      4   0   6  42        -0.0000008653
      0   4  42  27        -0.0000008494
      4   0  27  42        -0.0000008494
      6   7   2  42         0.0000008482
      7   6  42   2         0.0000008482
      0   4   8  24        -0.0000008428
      4   0  24   8        -0.0000008428
      0   5  42  34         0.0000008426
      5   0  34  42         0.0000008426
      1   3  19  42         0.0000008420
      3   1  42  19         0.0000008420
      1   6  43   7         0.0000008382
      6   1   7  43         0.0000008382
      4   5  43  29        -0.0000008332
      5   4  29  43        -0.0000008332
      1   1  31  34        -0.0000008241
      1   1  34  31        -0.0000008241
      0   3  43  19         0.0000008090
      3   0  19  43         0.0000008090
      1   2  43  19         0.0000008087
      2   1  19  43         0.0000008087
      6   7  42  34        -0.0000008070
      7   6  34  42        -0.0000008070
      0   0  31  34        -0.0000008062
      0   0  34  31        -0.0000008062
      0   2  41  16         0.0000008056
      2   0  16  41         0.0000008056
      2   7  43  15        -0.0000007995
      7   2  15  43        -0.0000007995
      4   7  20   6         0.0000007979
      7   4   6  20         0.0000007979
      0   7  33   5         0.0000007936
      7   0   5  33         0.0000007936
      1   5  42  18        -0.0000007835
      5   1  18  42        -0.0000007835
      1   7  29  35         0.0000007832
      7   1  35  29         0.0000007832
      1   5  25  24         0.0000007799
      5   1  24  25         0.0000007799
      7   7  34  42         0.0000007769
      7   7  42  34         0.0000007769
      1   2  14   3        -0.0000007724
      2   1   3  14        -0.0000007724
      0   4  29  13         0.0000007615
      4   0  13  29         0.0000007615
      6   6  30  43        -0.0000007535
      6   6  43  30        -0.0000007535
      4   5  42   0         0.0000007451
      5   4   0  42         0.0000007451
      1   7  43   7        -0.0000007426
      7   1   7  43        -0.0000007426
      4   7  38  25         0.0000007424
      7   4  25  38         0.0000007424
      1   4  26  41        -0.0000007421
      4   1  41  26        -0.0000007421
      5   6  42  23         0.0000007412
      6   5  23  42         0.0000007412
      0   4  36   6        -0.0000007277
      4   0   6  36        -0.0000007277
      1   7  43  23         0.0000007252
      7   1  23  43         0.0000007252
      1   5  43  19        -0.0000007243
      5   1  19  43        -0.0000007243
      1   1   5  31        -0.0000007159
      1   1  31   5        -0.0000007159
      0   0  19  21        -0.0000007151
      0   0  21  19        -0.0000007151
      1   4  42  29         0.0000007101
      4   1  29  42         0.0000007101
      3   5  18  42        -0.0000007081
      5   3  42  18        -0.0000007081
      1   7  42  27        -0.0000007043
      7   1  27  42        -0.0000007043
      0   2  42  19         0.0000007032
      2   0  19  42         0.0000007032
      1   5  31  43         0.0000006977
      5   1  43  31         0.0000006977
      1   6  43   8         0.0000006960
      6   1   8  43         0.0000006960
      4   5   0  42        -0.0000006898
      5   4  42   0        -0.0000006898
      4   7  42  28         0.0000006882
      7   4  28  42         0.0000006882
      1   4  43  26        -0.0000006870
      4   1  26  43        -0.0000006870
      1   5  11  18        -0.0000006853
      5   1  18  11        -0.0000006853
      2   3  31  43        -0.0000006797
      3   2  43  31        -0.0000006797
      0   4   7  30         0.0000006766
      4   0  30   7         0.0000006766
      0   6  42   9         0.0000006663
      6   0   9  42         0.0000006663
      1   4  31  29        -0.0000006635
      4   1  29  31        -0.0000006635
      4   5   6  42        -0.0000006596
      5   4  42   6        -0.0000006596
      7   7  30  43         0.0000006570
      7   7  43  30         0.0000006570
      1   5  18  40         0.0000006551
      5   1  40  18         0.0000006551
      0   4  36  26         0.0000006501
      4   0  26  36         0.0000006501
      2   4  26  40        -0.0000006496
      4   2  40  26        -0.0000006496
      1   2  23  32         0.0000006470
      2   1  32  23         0.0000006470
      0   1  31  30         0.0000006407
      1   0  30  31         0.0000006407
      1   3   5  19        -0.0000006385
      3   1  19   5        -0.0000006385
      1   5  18  42        -0.0000006332
      5   1  42  18        -0.0000006332
      6   7  42  21        -0.0000006325
      7   6  21  42        -0.0000006325
      1   2   9  32         0.0000006277
      2   1  32   9         0.0000006277
      0   4  43   7         0.0000006264
      4   0   7  43         0.0000006264
      0   7  27  35        -0.0000006259
      7   0  35  27        -0.0000006259
      1   4  29   2        -0.0000006235
      4   1   2  29        -0.0000006235
      0   0  29  33        -0.0000006226
      0   0  33  29        -0.0000006226
      2   3  42  30         0.0000006160
      3   2  30  42         0.0000006160
      0   1   1  19         0.0000006128
      1   0  19   1         0.0000006128
      0   6  43  15         0.0000006058
      6   0  15  43         0.0000006058
      1   4   1  10         0.0000006006
      4   1  10   1         0.0000006006
      6   7   1  43        -0.0000005987
      7   6  43   1        -0.0000005987
      0   2  11  31         0.0000005956
      2   0  31  11         0.0000005956
      0   1  19   1         0.0000005800
      1   0   1  19         0.0000005800
      0   2  18  12         0.0000005773
      2   0  12  18         0.0000005773
      0   2  16   1        -0.0000005717
      2   0   1  16        -0.0000005717
      0   7  43  10         0.0000005706
      7   0  10  43         0.0000005706
      1   7  25  15        -0.0000005595
      7   1  15  25        -0.0000005595
      1   4  42  20        -0.0000005495
      4   1  20  42        -0.0000005495
      1   5  18  36         0.0000005374
      5   1  36  18         0.0000005374
      0   5  29  23        -0.0000005366
      5   0  23  29        -0.0000005366
      0   6  43  10         0.0000005343
      6   0  10  43         0.0000005343
      0   5  43  18        -0.0000005313
      5   0  18  43        -0.0000005313
      6   7  43  28        -0.0000005300
      7   6  28  43        -0.0000005300
      1   6  19  37        -0.0000005249
      6   1  37  19        -0.0000005249
      0   3  32  33         0.0000005235
      3   0  33  32         0.0000005235
      1   5  13  19         0.0000005188
      5   1  19  13         0.0000005188
      1   5  18  14         0.0000005170
      5   1  14  18         0.0000005170
      5   7  42  23        -0.0000005114
      7   5  23  42        -0.0000005114
      2   7   4  41         0.0000004920
      7   2  41   4         0.0000004920
      6   7  42   2         0.0000004835
      7   6   2  42         0.0000004835
      0   6  42   7        -0.0000004785
      6   0   7  42        -0.0000004785
      2   2  16  38        -0.0000004769
      2   2  38  16        -0.0000004769
      0   6  42  29        -0.0000004693
      6   0  29  42        -0.0000004693
      4   7  36  43         0.0000004684
      7   4  43  36         0.0000004684
      1   4  42   9        -0.0000004637
      4   1   9  42        -0.0000004637
      2   6   8  34         0.0000004589
      6   2  34   8         0.0000004589
      1   2  19  43         0.0000004396
      2   1  43  19         0.0000004396
      3   5  42  18        -0.0000004374
      5   3  18  42        -0.0000004374
      0   5  41  18        -0.0000004288
      5   0  18  41        -0.0000004288
      0   3  31  24         0.0000004282
      3   0  24  31         0.0000004282
      0   2  19  40        -0.0000004210
      2   0  40  19        -0.0000004210
      3   4  17  42         0.0000004207
      4   3  42  17         0.0000004207
      2   4  42  10         0.0000004119
      4   2  10  42         0.0000004119
      3   6  42  26         0.0000004054
      6   3  26  42         0.0000004054
      0   6  23  14         0.0000004010
      6   0  14  23         0.0000004010
      0   4  43  29         0.0000003997
      4   0  29  43         0.0000003997
      0   5  13  18        -0.0000003986
      5   0  18  13        -0.0000003986
      1   5  31   1         0.0000003861
      5   1   1  31         0.0000003861
      1   4  14   8        -0.0000003852
      4   1   8  14        -0.0000003852
      1   6  39   3         0.0000003755
      6   1   3  39         0.0000003755
      0   6  43   6        -0.0000003742
      6   0   6  43        -0.0000003742
      7   7  13  35         0.0000003715
      7   7  35  13         0.0000003715
      0   4   4   2        -0.0000003686
      4   0   2   4        -0.0000003686
      0   1  17  26        -0.0000003664
      1   0  26  17        -0.0000003664
      0   2   6  22         0.0000003652
      2   0  22   6         0.0000003652
      3   3  25  42         0.0000003605
      3   3  42  25         0.0000003605
      0   3  26  33        -0.0000003593
      3   0  33  26        -0.0000003593
      0   4  42  10         0.0000003461
      4   0  10  42         0.0000003461
      0   2  19  42         0.0000003446
      2   0  42  19         0.0000003446
      0   3   1  31        -0.0000003396
      3   0  31   1        -0.0000003396
      5   7   8  42        -0.0000003331
      7   5  42   8        -0.0000003331
      1   3  42  19         0.0000003322
      3   1  19  42         0.0000003322
      0   6  43  27        -0.0000003216
      6   0  27  43        -0.0000003216
      1   4  34  29         0.0000003134
      4   1  29  34         0.0000003134
      0   7  42  20         0.0000003133
      7   0  20  42         0.0000003133
      5   6   4  43         0.0000003119
      6   5  43   4         0.0000003119
      1   1  19  21        -0.0000003118
      1   1  21  19        -0.0000003118
      4   7  43  34         0.0000002867
      7   4  34  43         0.0000002867
      1   7  26  11         0.0000002677
      7   1  11  26         0.0000002677
      1   3  16  41         0.0000002671
      3   1  41  16         0.0000002671
      2   3  34  13        -0.0000002642
      3   2  13  34        -0.0000002642
      4   6  18  42         0.0000002610
      6   4  42  18         0.0000002610
      0   6  16   6         0.0000002602
      6   0   6  16         0.0000002602
      0   2  40  19         0.0000002600
      2   0  19  40         0.0000002600
      1   4  43  10        -0.0000002576
      4   1  10  43        -0.0000002576
      0   4  11  10         0.0000002536
      4   0  10  11         0.0000002536
      4   4  31  42        -0.0000002499
      4   4  42  31        -0.0000002499
      0   4  43  20         0.0000002479
      4   0  20  43         0.0000002479
      0   5  34  19        -0.0000002432
      5   0  19  34        -0.0000002432
      0   2  14  19         0.0000002408
      2   0  19  14         0.0000002408
      1   6  34   0         0.0000002216
      6   1   0  34         0.0000002216
      2   3  43  19        -0.0000002171
      3   2  19  43        -0.0000002171
      1   2  10  29        -0.0000001930
      2   1  29  10        -0.0000001930
      1   3  26  37        -0.0000001897
      3   1  37  26        -0.0000001897
      4   7  41  42         0.0000001847
      7   4  42  41         0.0000001847
      1   4   2   8         0.0000001726
      4   1   8   2         0.0000001726
      1   5  43  36         0.0000001669
      5   1  36  43         0.0000001669
      2   4  34   4         0.0000001637
      4   2   4  34         0.0000001637
      0   2   7  20         0.0000001503
      2   0  20   7         0.0000001503
      0   1  18  25         0.0000001501
      1   0  25  18         0.0000001501
      0   6  43  32        -0.0000001453
      6   0  32  43        -0.0000001453
      0   5  31  42         0.0000001372
      5   0  42  31         0.0000001372
      3   5  19  16        -0.0000001371
      5   3  16  19        -0.0000001371
      0   7  43  15         0.0000001338
      7   0  15  43         0.0000001338
      0   5  31   2         0.0000001305
      5   0   2  31         0.0000001305
      0   1  25  18        -0.0000001284
      1   0  18  25        -0.0000001284
      0   5  42  19         0.0000001247
      5   0  19  42         0.0000001247
      5   7  17  42        -0.0000001146
      7   5  42  17        -0.0000001146
      0   5  43  16         0.0000001100
      5   0  16  43         0.0000001100
      1   5   8  37        -0.0000001043
      5   1  37   8        -0.0000001043
      2   3  18  42         0.0000000962
      3   2  42  18         0.0000000962
      0   7  43   6        -0.0000000799
      7   0   6  43        -0.0000000799
      1   4   8  36         0.0000000791
      4   1  36   8         0.0000000791
      3   7  37  25        -0.0000000784
      7   3  25  37        -0.0000000784
      1   1  29  33        -0.0000000780
      1   1  33  29        -0.0000000780
      1   4  13  10        -0.0000000753
      4   1  10  13        -0.0000000753
      6   6  24  28        -0.0000000728
      6   6  28  24        -0.0000000728
      1   7  22  36         0.0000000715
      7   1  36  22         0.0000000715
      0   4   2  10        -0.0000000577
      4   0  10   2        -0.0000000577
      0   0   0   4        -0.0000000492
      0   0   4   0        -0.0000000492
      0   4  16  29        -0.0000000489
      4   0  29  16        -0.0000000489
      1   3  18  38         0.0000000488
      3   1  38  18         0.0000000488
      0   3  26  17         0.0000000391
      3   0  17  26         0.0000000391
      1   4  18  22        -0.0000000359
      4   1  22  18        -0.0000000359
      0   4  43   8        -0.0000000334
      4   0   8  43        -0.0000000334
      3   5  42  43        -0.0000000273
      5   3  43  42        -0.0000000273
      1   4  43   6        -0.0000000110
      4   1   6  43        -0.0000000110

    SCF energy       (wfn)                    =  -78.020709809094427
    Reference energy (file100)                =  -78.020709809094654

    Opposite-spin MP2 correlation energy      =   -0.245225879300004
    Same-spin MP2 correlation energy          =   -0.060611154961441
    MP2 correlation energy                    =   -0.305837034261445
      * MP2 total energy                      =  -78.326546843356098

    Opposite-spin CCSD correlation energy     =   -0.282727474839345
    Same-spin CCSD correlation energy         =   -0.054978174227481
    CCSD correlation energy                   =   -0.337705649066826
      * CCSD total energy                     =  -78.358415458161474


*** tstop() called on Berts-MacBook-Pro.local at Wed Dec  6 23:13:52 2017
Module time:
	user time   =     147.92 seconds =       2.47 minutes
	system time =       1.44 seconds =       0.02 minutes
	total time  =        150 seconds =       2.50 minutes
Total time:
	user time   =     204.75 seconds =       3.41 minutes
	system time =       2.59 seconds =       0.04 minutes
	total time  =        208 seconds =       3.47 minutes

*** Psi4 exiting successfully. Buy a developer a beer!
