
    -----------------------------------------------------------------------
          Psi4: An Open-Source Ab Initio Electronic Structure Package
                               Psi4 1.1 release

                         Git: Rev {HEAD} add49b9 


    R. M. Parrish, L. A. Burns, D. G. A. Smith, A. C. Simmonett,
    A. E. DePrince III, E. G. Hohenstein, U. Bozkaya, A. Yu. Sokolov,
    R. Di Remigio, R. M. Richard, J. F. Gonthier, A. M. James,
    H. R. McAlexander, A. Kumar, M. Saitow, X. Wang, B. P. Pritchard,
    P. Verma, H. F. Schaefer III, K. Patkowski, R. A. King, E. F. Valeev,
    F. A. Evangelista, J. M. Turney, T. D. Crawford, and C. D. Sherrill,
    J. Chem. Theory Comput. in press (2017).
    (doi: 10.1021/acs.jctc.7b00174)

    -----------------------------------------------------------------------


    Psi4 started on: Wednesday, 06 December 2017 10:27PM

    Process ID:  12078
    PSIDATADIR: /anaconda3/share/psi4
    Memory:     500.0 MiB
    Threads:    1
    
  ==> Input File <==

--------------------------------------------------------------------------
"""This is a template for psi4 input format."""
import numpy
import sys

from openfermion.config import *
from openfermion.ops._interaction_tensor import (one_body_basis_change,
                                              two_body_basis_change)
from openfermion.hamiltonians import MolecularData
from numpy import array

sys.path.append('/Users/wadejong/Desktop/Quantum-Computing/OpenFermion/OpenFermion-Psi4/openfermionpsi4')
from _psi4_conversion_functions import *

# Set number of threads in PSI4
set_num_threads(8)

# Set memory that job can use in megabytes.
memory 8000 mb

# Initialize molecular data.
_description = 'ethylene_1.57080'
if _description == 'None':
    _description = None
molecule = MolecularData([['C', array([ 0.      ,  0.      ,  0.673055])], ['C', array([ 0.      ,  0.      , -0.673055])], ['H', array([ 0.      ,  0.934981,  1.246807])], ['H', array([ 0.      , -0.934981,  1.246807])], ['H', array([  9.34981000e-01,  -5.72510744e-17,  -1.24680700e+00])], ['H', array([ -9.34981000e-01,   5.72510744e-17,  -1.24680700e+00])]],
                         'DZP',
                         1,
                         0,
                         _description,
                          filename='/Users/wadejong/Desktop/QCQCSiddiqi/8_Qubit_Simulation/data/H4-C2_DZP_singlet_ethylene_1.57080')

# Set molecular geometry and symmetry.
molecule mol {
C 0.0 0.0 0.673055
C 0.0 0.0 -0.673055
H 0.0 0.934981 1.246807
H 0.0 -0.934981 1.246807
H 0.934981 -5.725107444567957e-17 -1.246807
H -0.934981 5.725107444567957e-17 -1.246807
symmetry c1
}
mol.set_multiplicity(1)
mol.set_molecular_charge(0)

# Set reference and guess.
if molecule.multiplicity == 1:
    set reference rhf
    set guess sad
    set sad_frac_occ true
else:
    set reference rohf
    set guess sad
    set sad_frac_occ true

# Set global parameters of calculation.
set globals {
    basis DZP
    freeze_core false
    fail_on_maxiter true
    df_scf_guess false
    guess sad
    sad_frac_occ true
    opdm false
    tpdm false
    soscf true
    scf_type pk
    diis true
    maxiter 1e6
    num_amps_print 1e6
    r_convergence 1e-7
    d_convergence 1e-7
    e_convergence 1e-7
    ints_tolerance EQUALITY_TOLERANCE
    damping_percentage 0
}

# Run self-consistent field (SCF) calculation.
if True:
    try:

        hf_energy, hf_wavefunction = energy('scf', return_wfn=True)
        scf_wfn = hf_wavefunction
        if True:
            print('Hartree-Fock energy for {} ({} electrons) is {}.'.format(
                molecule.name, molecule.n_electrons, hf_energy))
    except:
        if True:
            print('WARNING: SCF calculation failed.')
        else:
            raise
    else:
        # Get orbitals and Fock matrix.
        molecule.hf_energy = hf_energy
        molecule.nuclear_repulsion = mol.nuclear_repulsion_energy()
        molecule.canonical_orbitals = numpy.asarray(hf_wavefunction.Ca())
        molecule.n_orbitals = molecule.canonical_orbitals.shape[0]
        molecule.n_qubits = 2 * molecule.n_orbitals
        molecule.orbital_energies = numpy.asarray(hf_wavefunction.epsilon_a())
        molecule.fock_matrix = numpy.asarray(hf_wavefunction.Fa())

        # Get integrals using MintsHelper.
        mints = MintsHelper(hf_wavefunction.basisset())
        molecule.one_body_integrals = one_body_basis_change(
            numpy.asarray(mints.ao_kinetic()), molecule.canonical_orbitals)
        molecule.one_body_integrals += one_body_basis_change(
            numpy.asarray(mints.ao_potential()), molecule.canonical_orbitals)
        two_body_integrals = numpy.asarray(mints.ao_eri())
        two_body_integrals.reshape((molecule.n_orbitals, molecule.n_orbitals,
                                    molecule.n_orbitals, molecule.n_orbitals))
        two_body_integrals = numpy.einsum('psqr', two_body_integrals)
        two_body_integrals = two_body_basis_change(
            two_body_integrals, molecule.canonical_orbitals)
        molecule.two_body_integrals = two_body_integrals
        molecule.save()


# Perform MP2 energy calculation if there are at least two electrons.
if True:
    try:
        assert molecule.n_electrons > 1
        mp2_energy = energy('mp2',ref_wfn=scf_wfn)
        if True:
            print('MP2 energy for {} ({} electrons) is {}.'.format(
                molecule.name, molecule.n_electrons, mp2_energy))
    except:
        if True:
            print('WARNING: MP2 calculation failed.')
        else:
            raise
    else:
        molecule.mp2_energy = mp2_energy
        molecule.save()


# Perform configuration interaction singles and doubles (CISD) calculation.
if True:
    set qc_module detci
    try:
        cisd_energy, cisd_wavefunction = energy('cisd', ref_wfn=scf_wfn, return_wfn=True)
        if True:
            print('CISD energy for {} ({} electrons) is {}.'.format(
                molecule.name, molecule.n_electrons, cisd_energy))
    except:
        if True:
            print('WARNING: CISD calculation failed.')
        else:
            raise
    else:
        # For the functions below, "a" and "b" refer to "up and "down" spins.
        molecule.cisd_energy = cisd_energy

        # Get 1-RDM from CISD calculation.
        """cisd_one_rdm_a = numpy.array(cisd_wavefunction.get_opdm(
            0, 0, 'A', True)).reshape(molecule.n_orbitals, molecule.n_orbitals)
        cisd_one_rdm_b = numpy.array(cisd_wavefunction.get_opdm(
            0, 0, 'B', True)).reshape(molecule.n_orbitals, molecule.n_orbitals)

        # Get 2-RDM from CISD calculation.
        cisd_two_rdm_aa = numpy.array(cisd_wavefunction.get_tpdm(
            'AA', False)).reshape(molecule.n_orbitals, molecule.n_orbitals,
                                  molecule.n_orbitals, molecule.n_orbitals)
        cisd_two_rdm_ab = numpy.array(cisd_wavefunction.get_tpdm(
            'AB', False)).reshape(molecule.n_orbitals, molecule.n_orbitals,
                                  molecule.n_orbitals, molecule.n_orbitals)
        cisd_two_rdm_bb = numpy.array(cisd_wavefunction.get_tpdm(
            'BB', False)).reshape(molecule.n_orbitals, molecule.n_orbitals,
                                  molecule.n_orbitals, molecule.n_orbitals)

        # Get overall RDMs.
        cisd_one_rdm, cisd_two_rdm = unpack_spatial_rdm(
            cisd_one_rdm_a, cisd_one_rdm_b, cisd_two_rdm_aa,
            cisd_two_rdm_ab, cisd_two_rdm_bb)

        # Store 1-RDM in molecule file, 2-RDM separately in other file.
        molecule.cisd_one_rdm = cisd_one_rdm
        molecule.cisd_two_rdm = cisd_two_rdm
        molecule.save()"""


# Perform exact diagonalization.
if False:
    set qc_module detci
    try:
        fci_energy, fci_wavefunction = energy('fci', ref_wfn=scf_wfn, return_wfn=True)
        if True:
            print('FCI energy for {} ({} electrons) is {}.'.format(
                molecule.name, molecule.n_electrons, fci_energy))
    except:
        if True:
            print('WARNING: FCI calculation failed.')
        else:
            raise
    else:
        # For the functions below, "a" and "b" refer to "up and "down" spins.
        molecule.fci_energy = fci_energy

        # Get 1-RDM from FCI calculation.
        """fci_one_rdm_a = numpy.array(fci_wavefunction.get_opdm(
            0, 0, 'A', True)).reshape(molecule.n_orbitals, molecule.n_orbitals)
        fci_one_rdm_b = numpy.array(fci_wavefunction.get_opdm(
            0, 0, 'B', True)).reshape(molecule.n_orbitals, molecule.n_orbitals)

        # Get 2-RDM from FCI calculation.
        fci_two_rdm_aa = numpy.array(fci_wavefunction.get_tpdm(
            'AA', False)).reshape(molecule.n_orbitals, molecule.n_orbitals,
                                  molecule.n_orbitals, molecule.n_orbitals)
        fci_two_rdm_ab = numpy.array(fci_wavefunction.get_tpdm(
            'AB', False)).reshape(molecule.n_orbitals, molecule.n_orbitals,
                                  molecule.n_orbitals, molecule.n_orbitals)
        fci_two_rdm_bb = numpy.array(fci_wavefunction.get_tpdm(
            'BB', False)).reshape(molecule.n_orbitals, molecule.n_orbitals,
                                  molecule.n_orbitals, molecule.n_orbitals)

        # Get overall RDMs.
        fci_one_rdm, fci_two_rdm = unpack_spatial_rdm(
            fci_one_rdm_a, fci_one_rdm_b,
            fci_two_rdm_aa, fci_two_rdm_ab, fci_two_rdm_bb)

        # Store 1-RDM in molecule file, 2-RDM separately in other file.
        molecule.fci_one_rdm = fci_one_rdm
        molecule.fci_two_rdm = fci_two_rdm
        molecule.save()"""


# Perform coupled cluster singles and doubles (CCSD) calculation.
if True:
    set qc_module ccenergy
    try:
        ccsd_energy = energy('ccsd',ref_wfn=scf_wfn)
        if True:
            print('CCSD energy for {} ({} electrons) is {}.'.format(
                molecule.name, molecule.n_electrons, ccsd_energy))
    except:
        if True:
            print('WARNING: CCSD calculation failed.')
        else:
            raise
    else:
        molecule.ccsd_energy = ccsd_energy

        # Merge CC amplitudes into molecule by parsing
        psi_filename = outfile_name()
        ccsd_amplitudes = parse_psi4_ccsd_amplitudes(
            2 * molecule.n_orbitals,
            molecule.get_n_alpha_electrons(),
            molecule.get_n_beta_electrons(),
            psi_filename)
        molecule.ccsd_amplitudes = ccsd_amplitudes
        molecule.save()
--------------------------------------------------------------------------
  Python driver attempted to set threads to 8.
  Psi4 was compiled without OpenMP, setting threads to 1.

  Memory set to   7.451 GiB by Python driver.

*** tstart() called on Berts-MacBook-Pro.local
*** at Wed Dec  6 22:27:06 2017

   => Loading Basis Set <=

    Name: DZP
    Role: ORBITAL
    Keyword: BASIS
    atoms 1-2 entry C          line    73 file /anaconda3/share/psi4/basis/dzp.gbs 
    atoms 3-6 entry H          line    16 file /anaconda3/share/psi4/basis/dzp.gbs 


         ---------------------------------------------------------
                                   SCF
            by Justin Turney, Rob Parrish, and Andy Simmonett
                              RHF Reference
                        1 Threads,   7629 MiB Core
         ---------------------------------------------------------

  ==> Geometry <==

    Molecular point group: c1
    Full point group: D2d

    Geometry (in Angstrom), charge = 0, multiplicity = 1:

       Center              X                  Y                   Z               Mass       
    ------------   -----------------  -----------------  -----------------  -----------------
           C          0.000000000000     0.000000000000     0.673055000000    12.000000000000
           C          0.000000000000     0.000000000000    -0.673055000000    12.000000000000
           H          0.000000000000     0.934981000000     1.246807000000     1.007825032070
           H          0.000000000000    -0.934981000000     1.246807000000     1.007825032070
           H          0.934981000000    -0.000000000000    -1.246807000000     1.007825032070
           H         -0.934981000000     0.000000000000    -1.246807000000     1.007825032070

  Running in c1 symmetry.

  Rotational constants: A =      4.78350  B =      0.89190  C =      0.89190 [cm^-1]
  Rotational constants: A = 143405.72603  B =  26738.35586  C =  26738.35586 [MHz]
  Nuclear repulsion =   32.992883732394070

  Charge       = 0
  Multiplicity = 1
  Electrons    = 16
  Nalpha       = 8
  Nbeta        = 8

  ==> Algorithm <==

  SCF Algorithm Type is PK.
  DIIS enabled.
  MOM disabled.
  Fractional occupation disabled.
  Guess Type is SAD.
  Energy threshold   = 1.00e-07
  Density threshold  = 1.00e-07
  Integral threshold = 0.00e+00

  ==> Primary Basis <==

  Basis Set: DZP
    Blend: DZP
    Number of shells: 26
    Number of basis function: 52
    Number of Cartesian functions: 52
    Spherical Harmonics?: false
    Max angular momentum: 2

  ==> Pre-Iterations <==

   -------------------------------------------------------
    Irrep   Nso     Nmo     Nalpha   Nbeta   Ndocc  Nsocc
   -------------------------------------------------------
     A         52      52       0       0       0       0
   -------------------------------------------------------
    Total      52      52       8       8       8       0
   -------------------------------------------------------

  ==> Integral Setup <==

  Using in-core PK algorithm.
   Calculation information:
      Number of atoms:                   6
      Number of AO shells:              26
      Number of primitives:             50
      Number of atomic orbitals:        52
      Number of basis functions:        52

      Integral cutoff                 1.00e-12
      Number of threads:                 1

  Performing in-core PK
  Using 1900262 doubles for integral storage.
  We computed 61771 shell quartets total.
  Whereas there are 61776 unique shell quartets.
  ==> DiskJK: Disk-Based J/K Matrices <==

    J tasked:                  Yes
    K tasked:                  Yes
    wK tasked:                  No
    Memory (MB):              5722
    Schwarz Cutoff:          1E-12

    OpenMP threads:              1
  Minimum eigenvalue in the overlap matrix is 9.1420728544E-03.
  Using Symmetric Orthogonalization.

  SCF Guess: Superposition of Atomic Densities via on-the-fly atomic UHF.

  ==> Iterations <==

                        Total Energy        Delta E     RMS |[F,P]|

   @RHF iter   0:   -69.16378657642522   -6.91638e+01   1.01492e-01 
   @RHF iter   1:   -74.03314254541563   -4.86936e+00   4.02580e-02 
   @RHF iter   2:   -76.85518676702523   -2.82204e+00   2.58545e-02 DIIS/DAMP
   @RHF iter   3:   -77.84759444246961   -9.92408e-01   3.31396e-03 DIIS/DAMP
   @RHF iter   4:   -77.86889036532945   -2.12959e-02   1.74078e-03 SOSCF, nmicro = 5/DAMP
   @RHF iter   5:   -77.87777019466938   -8.87983e-03   1.25818e-04 SOSCF, nmicro = 5/DAMP
   @RHF iter   6:   -77.87782028136237   -5.00867e-05   3.50017e-06 SOSCF, nmicro = 5/DAMP
   @RHF iter   7:   -77.87782031412598   -3.27636e-08   1.07644e-08 SOSCF, conv/DAMP

  ==> Post-Iterations <==

    Orbital Energies (a.u.)
    -----------------------

    Doubly Occupied:                                                      

       1A    -11.252508     2A    -11.251057     3A     -1.034688  
       4A     -0.792754     5A     -0.599025     6A     -0.589970  
       7A     -0.585981     8A     -0.256339  

    Virtual:                                                              

       9A      0.041106    10A      0.256661    11A      0.319439  
      12A      0.324261    13A      0.411126    14A      0.429211  
      15A      0.430213    16A      0.458774    17A      0.463224  
      18A      0.561179    19A      0.575866    20A      0.693275  
      21A      0.810462    22A      1.000155    23A      1.221708  
      24A      1.290544    25A      1.311335    26A      1.315809  
      27A      1.522451    28A      1.666002    29A      1.863333  
      30A      1.870749    31A      1.965548    32A      2.007834  
      33A      2.095660    34A      2.096615    35A      2.265312  
      36A      2.424443    37A      2.458600    38A      2.459412  
      39A      2.551273    40A      2.819179    41A      2.898708  
      42A      2.899553    43A      2.934209    44A      3.188078  
      45A      3.367295    46A      3.540694    47A      3.648376  
      48A      3.651364    49A      4.261397    50A      4.480793  
      51A     27.638270    52A     27.646641  

    Final Occupation by Irrep:
              A 
    DOCC [     8 ]

  Energy converged.

  @RHF Final Energy:   -77.87782031412598

   => Energetics <=

    Nuclear Repulsion Energy =             32.9928837323940698
    One-Electron Energy =                -169.0167646984577061
    Two-Electron Energy =                  58.1460606519376668
    DFT Exchange-Correlation Energy =       0.0000000000000000
    Empirical Dispersion Energy =           0.0000000000000000
    PCM Polarization Energy =               0.0000000000000000
    EFP Energy =                            0.0000000000000000
    Total Energy =                        -77.8778203141259837



Properties will be evaluated at   0.000000,   0.000000,   0.000000 Bohr

Properties computed using the SCF density matrix

  Nuclear Dipole Moment: (a.u.)
     X:     0.0000      Y:     0.0000      Z:     0.0000

  Electronic Dipole Moment: (a.u.)
     X:     0.0000      Y:    -0.0000      Z:    -0.0000

  Dipole Moment: (a.u.)
     X:     0.0000      Y:    -0.0000      Z:    -0.0000     Total:     0.0000

  Dipole Moment: (Debye)
     X:     0.0000      Y:    -0.0000      Z:    -0.0000     Total:     0.0000


*** tstop() called on Berts-MacBook-Pro.local at Wed Dec  6 22:27:06 2017
Module time:
	user time   =       0.47 seconds =       0.01 minutes
	system time =       0.09 seconds =       0.00 minutes
	total time  =          0 seconds =       0.00 minutes
Total time:
	user time   =       0.47 seconds =       0.01 minutes
	system time =       0.09 seconds =       0.00 minutes
	total time  =          0 seconds =       0.00 minutes

*** tstart() called on Berts-MacBook-Pro.local
*** at Wed Dec  6 22:27:11 2017


  //>>>>>>>>>>>>>>>>>>>>>>>>>>>>>>>>>>>//
  //               DFMP2               //
  //<<<<<<<<<<<<<<<<<<<<<<<<<<<<<<<<<<<//

   => Loading Basis Set <=

    Name: (DZP AUX)
    Role: RIFIT
    Keyword: DF_BASIS_MP2
    atoms 1-2 entry C          line   269 file /anaconda3/share/psi4/basis/def2-qzvpp-ri.gbs 
    atoms 3-6 entry H          line    23 file /anaconda3/share/psi4/basis/def2-qzvpp-ri.gbs 

	 --------------------------------------------------------
	                          DF-MP2                         
	      2nd-Order Density-Fitted Moller-Plesset Theory     
	              RMP2 Wavefunction,   1 Threads             
	                                                         
	        Rob Parrish, Justin Turney, Andy Simmonett,      
	           Ed Hohenstein, and C. David Sherrill          
	 --------------------------------------------------------

   => Auxiliary Basis Set <=

  Basis Set: (DZP AUX)
    Blend: DEF2-QZVPP-RI
    Number of shells: 130
    Number of basis function: 506
    Number of Cartesian functions: 666
    Spherical Harmonics?: true
    Max angular momentum: 5

	 --------------------------------------------------------
	                 NBF =    52, NAUX =   506
	 --------------------------------------------------------
	   CLASS    FOCC     OCC    AOCC    AVIR     VIR    FVIR
	   PAIRS       0       8       8      44      44       0
	 --------------------------------------------------------

	-----------------------------------------------------------
	 ==================> DF-MP2 Energies <==================== 
	-----------------------------------------------------------
	 Reference Energy          =     -77.8778203141259837 [Eh]
	 Singles Energy            =      -0.0000000000000000 [Eh]
	 Same-Spin Energy          =      -0.0620080334954348 [Eh]
	 Opposite-Spin Energy      =      -0.2543463418846171 [Eh]
	 Correlation Energy        =      -0.3163543753800518 [Eh]
	 Total Energy              =     -78.1941746895060419 [Eh]
	-----------------------------------------------------------
	 ================> DF-SCS-MP2 Energies <================== 
	-----------------------------------------------------------
	 SCS Same-Spin Scale       =       0.3333333333333333 [-]
	 SCS Opposite-Spin Scale   =       1.2000000000000000 [-]
	 SCS Same-Spin Energy      =      -0.0206693444984783 [Eh]
	 SCS Opposite-Spin Energy  =      -0.3052156102615405 [Eh]
	 SCS Correlation Energy    =      -0.3258849547600187 [Eh]
	 SCS Total Energy          =     -78.2037052688859973 [Eh]
	-----------------------------------------------------------


*** tstop() called on Berts-MacBook-Pro.local at Wed Dec  6 22:27:11 2017
Module time:
	user time   =       0.29 seconds =       0.00 minutes
	system time =       0.05 seconds =       0.00 minutes
	total time  =          0 seconds =       0.00 minutes
Total time:
	user time   =       4.84 seconds =       0.08 minutes
	system time =       0.28 seconds =       0.00 minutes
	total time  =          5 seconds =       0.08 minutes
 MINTS: Wrapper to libmints.
   by Justin Turney

   Calculation information:
      Number of threads:                 1
      Number of atoms:                   6
      Number of AO shells:              26
      Number of SO shells:              26
      Number of primitives:             50
      Number of atomic orbitals:        52
      Number of basis functions:        52

      Number of irreps:                  1
      Integral cutoff                 0.00e+00
      Number of functions per irrep: [  52 ]

 OEINTS: Overlap, kinetic, potential, dipole, and quadrupole integrals
         stored in file 35.

      Computing two-electron integrals...done
      Computed 722406 non-zero two-electron integrals.
        Stored in file 33.


         ---------------------------------------------------------
                          Configuration Interaction
                            (a 'D E T C I' module)

                 C. David Sherrill, Daniel G. A. Smith, and
                              Matt L. Leininger
         ---------------------------------------------------------


   ==> Parameters <==

    EX LEVEL       =        2      H0 BLOCKSIZE  =     1000
    VAL EX LEVEL   =        0      H0 GUESS SIZE =     1000
    H0COUPLINGSIZE =        0      H0 COUPLING   =       NO
    MAXITER        =       24      NUM PRINT     =       20
    NUM ROOTS      =        1      ICORE         =        1
    PRINT LVL      =        1      FCI           =       NO
    R CONV         = 1.00e-07      MIXED         =      YES
    E CONV         = 1.00e-07      MIXED4        =      YES
    R4S            =       NO      REPL OTF      =       NO
    DIAG METHOD    =      SEM      FOLLOW ROOT   =        0
    PRECONDITIONER = DAVIDSON      UPDATE        = DAVIDSON
    S              =   0.0000      Ms0           =      YES
    GUESS VECTOR   =  H0BLOCK      OPENTYPE      =     NONE
    COLLAPSE SIZE  =        1      HD AVG        = EVANGELISTI
    MAX NUM VECS   =       25      REF SYM       =     AUTO
    IOPEN        =       NO

    EX ALLOW       =  1  1 
    STATE AVERAGE  =  0(1.00) 

   ==> CI Orbital and Space information <==

    RAS1 LVL      =        7      A RAS3 MAX    =        2
    RAS1 MIN      =       14      B RAS3 MAX    =        2
    A RAS1 LVL    =        7      RAS4 LVL      =       52
    A RAS1 MIN    =        6      A RAS4 MAX    =        0
    A RAS1 MAX    =        8      B RAS4 MAX    =        0
    B RAS1 LVL    =        7      RAS4 MAX      =        0
    B RAS1 MIN    =        6      A RAS34 MAX   =        2
    B RAS1 MAX    =        8      B RAS34 MAX   =        2
    RAS3 LVL      =        8      RAS34 MAX     =        2
    RAS3 MAX      =        2
   ------------------------------------
               Space    Total     A
   ------------------------------------
                 Nso       52    52
                 Nmo       52    52
               Ndocc        8     8
               Nsocc        0     0
   ------------------------------------
              CI Spaces
   ------------------------------------
        Dropped DOCC        0     0
                RAS1        8     8
                RAS2        0     0
                RAS3       44    44
                RAS4        0     0
      Active (total)       52    52
        Dropped UOCC        0     0
   ------------------------------------

   ==> Setting up CI strings <==

    There are 26841 alpha and 26841 beta strings
    The CI space requires 177585 (1.78E+05) determinants and 6 blocks

   ==> Transforming CI integrals <==

	Presorting SO-basis two-electron integrals.
	Sorting File: SO Ints (nn|nn) nbuckets = 1
	Transforming the one-electron integrals and constructing Fock matrices
	Starting first half-transformation.
	Sorting half-transformed integrals.
	First half integral transformation complete.
	Starting second half-transformation.
	Two-electron integral transformation complete.

   ==> Starting CI iterations <==

    H0 Block Eigenvalue = -77.96842707

    Simultaneous Expansion Method (Block Davidson Method)
    Using 1 initial trial vectors

(sem_iter): H0block_->H0b_diag[1][0] - H0block_->H0b_diag[2][0] = -0.690735 - 0.690735 = -1.381470 > 1.0E-8
     Iter   Root       Total Energy       Delta E      C RMS

   @CI  0:     0    -77.967839061900   -1.1096E+02   1.1169E+00  
   @CI  1:     0    -78.115555431434   -1.4772E-01   1.6421E-01  
   @CI  2:     0    -78.179706492595   -6.4151E-02   1.7476E-01  
   @CI  3:     0    -78.198052921067   -1.8346E-02   5.0843E-02  
   @CI  4:     0    -78.199091546109   -1.0386E-03   1.3178E-02  
   @CI  5:     0    -78.199170441340   -7.8895E-05   3.8032E-03  
   @CI  6:     0    -78.199177212062   -6.7707E-06   1.2027E-03  
   @CI  7:     0    -78.199177782950   -5.7089E-07   3.3896E-04  
   @CI  8:     0    -78.199177825610   -4.2660E-08   8.7911E-05  
   @CI  9:     0    -78.199177828229   -2.6197E-09   2.1504E-05  
   @CI 10:     0    -78.199177828394   -1.6458E-10   5.1902E-06  
   @CI 11:     0    -78.199177828403   -9.1802E-12   1.1747E-06  
   @CI 12:     0    -78.199177828404   -5.1159E-13   3.1484E-07  
    Warning: Norm of correction (root 0) is < 1.0E-13
   @CI 13:     0    -78.199177828404   -2.8422E-14   8.6875E-08 c

   ==> Energetics <==

    SCF energy =            0.000000000000000
    Total CI energy =     -78.199177828403549

   ==> CISD root 0 information <==

    CISD Root 0 energy =   -78.199177828403549

   The 20 most important determinants:

    *   1   -0.934423  (    0,    0)  1AX 2AX 3AX 4AX 5AX 6AX 7AX 8AX 
    *   2    0.178381  (    1,    1)  1AX 2AX 3AX 4AX 5AX 6AX 7AX 9AX 
    *   3    0.048645  (    1,   81)  1AX 2AX 3AX 4AX 5AX 6AX 7AX 9AA 19AB 
    *   4    0.048645  (   81,    1)  1AX 2AX 3AX 4AX 5AX 6AX 7AX 9AB 19AA 
    *   5   -0.035541  (    1,    2)  1AX 2AX 3AX 4AX 5AX 6AX 7AA 8AB 9AX 
    *   6   -0.035541  (    2,    1)  1AX 2AX 3AX 4AX 5AX 6AX 7AB 8AA 9AX 
    *   7    0.026893  (   99,   99)  1AX 2AX 3AX 4AX 5AX 7AX 8AX 21AX 
    *   8   -0.024283  (    0,   73)  1AX 2AX 3AX 4AX 5AX 6AX 7AX 8AA 18AB 
    *   9   -0.024283  (   73,    0)  1AX 2AX 3AX 4AX 5AX 6AX 7AX 8AB 18AA 
    *  10    0.023683  (    2,    2)  1AX 2AX 3AX 4AX 5AX 6AX 8AX 9AX 
    *  11    0.021834  (   73,   73)  1AX 2AX 3AX 4AX 5AX 6AX 7AX 18AX 
    *  12   -0.020565  (    2,   81)  1AX 2AX 3AX 4AX 5AX 6AX 7AB 8AA 9AA 19AB 
    *  13   -0.020565  (   81,    2)  1AX 2AX 3AX 4AX 5AX 6AX 7AA 8AB 9AB 19AA 
    *  14    0.020459  (    1,   99)  1AX 2AX 3AX 4AX 5AX 6AA 7AX 8AB 9AA 21AB 
    *  15    0.020459  (   99,    1)  1AX 2AX 3AX 4AX 5AX 6AB 7AX 8AA 9AB 21AA 
    *  16    0.018896  (   81,   81)  1AX 2AX 3AX 4AX 5AX 6AX 7AX 19AX 
    *  17    0.018535  (   52,   52)  1AX 2AX 3AX 4AX 6AX 7AX 8AX 15AX 
    *  18    0.018502  (    5,    5)  1AX 2AX 3AX 5AX 6AX 7AX 8AX 9AX 
    *  19    0.017711  (   35,   35)  1AX 2AX 3AX 4AX 5AX 7AX 8AX 13AX 
    *  20   -0.017548  (   52,   73)  1AX 2AX 3AX 4AX 5AB 6AX 7AX 8AA 15AA 18AB 

		 "A good bug is a dead bug" 

			 - Starship Troopers

		 "I didn't write FORTRAN.  That's the problem."

			 - Edward Valeev
 MINTS: Wrapper to libmints.
   by Justin Turney

   Calculation information:
      Number of threads:                 1
      Number of atoms:                   6
      Number of AO shells:              26
      Number of SO shells:              26
      Number of primitives:             50
      Number of atomic orbitals:        52
      Number of basis functions:        52

      Number of irreps:                  1
      Integral cutoff                 0.00e+00
      Number of functions per irrep: [  52 ]

 OEINTS: Overlap, kinetic, potential, dipole, and quadrupole integrals
         stored in file 35.

      Computing two-electron integrals...done
      Computed 722406 non-zero two-electron integrals.
        Stored in file 33.


*** tstart() called on Berts-MacBook-Pro.local
*** at Wed Dec  6 22:28:07 2017


	Wfn Parameters:
	--------------------
	Wavefunction         = CCSD
	Number of irreps     = 1
	Number of MOs        = 52
	Number of active MOs = 52
	AO-Basis             = NONE
	Semicanonical        = false
	Reference            = RHF
	Print Level          = 1

	IRREP	# MOs	# FZDC	# DOCC	# SOCC	# VIRT	# FZVR
	-----	-----	------	------	------	------	------
	 A	   52	    0	    8	    0	    44	    0
	Transforming integrals...
	IWL integrals will be deleted.
	(OO|OO)...
	Presorting SO-basis two-electron integrals.
	Sorting File: SO Ints (nn|nn) nbuckets = 1
	Transforming the one-electron integrals and constructing Fock matrices
	Starting first half-transformation.
	Sorting half-transformed integrals.
	First half integral transformation complete.
	Starting second half-transformation.
	Two-electron integral transformation complete.
	(OO|OV)...
	Starting second half-transformation.
	Two-electron integral transformation complete.
	(OO|VV)...
	Starting second half-transformation.
	Two-electron integral transformation complete.
	(OV|OO)...
	Starting first half-transformation.
	Sorting half-transformed integrals.
	First half integral transformation complete.
	Starting second half-transformation.
	Two-electron integral transformation complete.
	(OV|OV)...
	Starting second half-transformation.
	Two-electron integral transformation complete.
	(OV|VV)...
	Starting second half-transformation.
	Two-electron integral transformation complete.
	(VV|OO)...
	Starting first half-transformation.
	Sorting half-transformed integrals.
	First half integral transformation complete.
	Starting second half-transformation.
	Two-electron integral transformation complete.
	(VV|OV)...
	Starting second half-transformation.
	Two-electron integral transformation complete.
	(VV|VV)...
	Starting second half-transformation.
	Two-electron integral transformation complete.
	Frozen core energy     =      0.00000000000000

	Size of irrep 0 of <ab|cd> integrals:      3.748 (MW) /     29.985 (MB)
	Total:                                     3.748 (MW) /     29.985 (MB)

	Size of irrep 0 of <ia|bc> integrals:      0.681 (MW) /      5.452 (MB)
	Total:                                     0.681 (MW) /      5.452 (MB)

	Size of irrep 0 of tijab amplitudes:       0.124 (MW) /      0.991 (MB)
	Total:                                     0.124 (MW) /      0.991 (MB)

	Nuclear Rep. energy          =     32.99288373239407
	SCF energy                   =    -77.87782031412598
	One-electron energy          =   -169.01676715964967
	Two-electron energy          =     58.14606311312927
	Reference energy             =    -77.87782031412635

*** tstop() called on Berts-MacBook-Pro.local at Wed Dec  6 22:28:08 2017
Module time:
	user time   =       0.29 seconds =       0.00 minutes
	system time =       0.81 seconds =       0.01 minutes
	total time  =          1 seconds =       0.02 minutes
Total time:
	user time   =      60.28 seconds =       1.00 minutes
	system time =       1.80 seconds =       0.03 minutes
	total time  =         62 seconds =       1.03 minutes

*** tstart() called on Berts-MacBook-Pro.local
*** at Wed Dec  6 22:28:08 2017

            **************************
            *                        *
            *        CCENERGY        *
            *                        *
            **************************

    Nuclear Rep. energy (wfn)     =   32.992883732394070
    SCF energy          (wfn)     =  -77.877820314125984
    Reference energy    (file100) =  -77.877820314126353

    Input parameters:
    -----------------
    Wave function   =     CCSD
    Reference wfn   =     RHF
    Brueckner       =     No
    Memory (Mbytes) =     8000.0
    Maxiter         =   1000000
    R_Convergence   =     1.0e-07
    E_Convergence   =     1.0e-07
    Restart         =     Yes
    DIIS            =     Yes
    AO Basis        =     NONE
    ABCD            =     NEW
    Cache Level     =     2
    Cache Type      =     LOW
    Print Level     =     1
    Num. of threads =     1
    # Amps to Print =     1000000
    Print MP2 Amps? =     No
    Analyze T2 Amps =     No
    Print Pair Ener =     No
    Local CC        =     No
    SCS-MP2         =     False
    SCSN-MP2        =     False
    SCS-CCSD        =     False

MP2 correlation energy -0.3163632223422699
                Solving CC Amplitude Equations
                ------------------------------
  Iter             Energy              RMS        T1Diag      D1Diag    New D1Diag    D2Diag
  ----     ---------------------    ---------   ----------  ----------  ----------   --------
     0        -0.316363222342270    0.000e+00    0.000000    0.000000    0.000000    0.190215
     1        -0.338357649852786    8.296e-02    0.008518    0.031805    0.031805    0.236650
     2        -0.353562705196299    6.016e-02    0.011596    0.044165    0.044165    0.306727
     3        -0.361511042648803    4.253e-02    0.016262    0.062729    0.062729    0.413588
     4        -0.365574385241738    2.399e-02    0.018138    0.068737    0.068737    0.514193
     5        -0.365970931682051    6.095e-03    0.018100    0.067432    0.067432    0.524688
     6        -0.366166890804743    1.956e-03    0.018233    0.067366    0.067366    0.529277
     7        -0.366155190413041    5.674e-04    0.018263    0.067327    0.067327    0.529136
     8        -0.366132624715365    1.646e-04    0.018268    0.067320    0.067320    0.528708
     9        -0.366144655967349    5.887e-05    0.018279    0.067346    0.067346    0.528927
    10        -0.366144294756210    1.480e-05    0.018280    0.067347    0.067347    0.528902
    11        -0.366144113179593    3.935e-06    0.018281    0.067348    0.067348    0.528899
    12        -0.366144209446421    1.272e-06    0.018281    0.067348    0.067348    0.528901
    13        -0.366144219313406    4.691e-07    0.018281    0.067349    0.067349    0.528902
    14        -0.366144207711268    1.102e-07    0.018281    0.067348    0.067348    0.528902
    15        -0.366144209022293    3.709e-08    0.018281    0.067348    0.067348    0.528902

    Iterations converged.


    Largest TIA Amplitudes:
              7   9         0.0553844871
              7   8         0.0277571890
              4   0        -0.0246737127
              7   5         0.0183790949
              7  17         0.0109358674
              6   9         0.0082680074
              7  20        -0.0080953522
              7  28         0.0074607122
              6   8         0.0058903764
              5   4         0.0054774651
              7  24         0.0040653444
              5  22         0.0038738602
              3  23         0.0037111017
              3  13         0.0035435785
              2  26        -0.0031959923
              4   6         0.0031653053
              4  32        -0.0027876312
              2  22         0.0027061672
              2   3        -0.0026982902
              4  21         0.0025988678
              7  33         0.0025899329
              2  40         0.0024739082
              4  25        -0.0022549884
              5  34        -0.0022172169
              7  39         0.0022054463
              3   1        -0.0021734067
              6  17         0.0021115342
              6  33        -0.0020885339
              5  11        -0.0019402747
              3  19         0.0018072143
              3  41         0.0017603674
              6  24        -0.0017423628
              3  27        -0.0016116521
              2   4         0.0015502081
              3  35         0.0014949566
              5  18         0.0014880240
              6  39         0.0014495424
              4  16        -0.0014285460
              3  36         0.0013094515
              3   2        -0.0012577776
              3  12         0.0010946417
              4   7        -0.0010843986
              5  26         0.0010546683
              5  37        -0.0009149526
              4  38         0.0008910056
              5  14        -0.0008673725
              2  37         0.0007329103
              4  10         0.0007073164
              2  14         0.0006838569
              2  30        -0.0005915853
              1  13        -0.0005835475
              2  11         0.0005442786
              6  20        -0.0005380243
              0  40        -0.0004689194
              1  41        -0.0004021950
              1   1        -0.0003335341
              6  28        -0.0003259163
              5  40         0.0003150645
              0  11        -0.0003068853
              0  14        -0.0003063742
              5  30         0.0002934664
              2  34        -0.0002760852
              0   3        -0.0002719023
              1  12        -0.0002472010
              1  35        -0.0002408325
              3  31        -0.0002370508
              3  15        -0.0002355742
              4  29        -0.0002345719
              0  37        -0.0001887994
              0   4        -0.0001522605
              1  27        -0.0001455766
              1   2        -0.0001327521
              0  22        -0.0001247576
              6   5        -0.0001211319
              2  42         0.0001162954
              1  36        -0.0001101445
              1  23        -0.0001001386
              1  43         0.0000941737
              0  42         0.0000940562
              3  43         0.0000906423
              2  18        -0.0000826743
              0  34        -0.0000400238
              1  15        -0.0000369127
              5   3         0.0000333086
              1  19        -0.0000200616
              5  42         0.0000161516
              0  30         0.0000042245
              0  26         0.0000027197
              1  31        -0.0000026414
              0  18         0.0000019898
              7   0        -0.0000018674
              7  29         0.0000007268
              7   6        -0.0000006063
              6   0         0.0000003717
              7  25        -0.0000003241
              7   7         0.0000002363
              4  24        -0.0000002127
              7  16         0.0000001857
              6  25         0.0000001521
              5  12         0.0000001257
              4   9         0.0000001104
              0  13         0.0000001068
              7  21        -0.0000000967
              1  40        -0.0000000840
              6   6        -0.0000000772
              0  41         0.0000000731
              7  38         0.0000000690
              7  10        -0.0000000670
              0   1         0.0000000614
              1  11        -0.0000000555
              1  14        -0.0000000553
              1   3        -0.0000000506
              4   5         0.0000000495
              2   2         0.0000000490
              6  16         0.0000000465
              0  12         0.0000000463
              2   1         0.0000000449
              0  35         0.0000000442
              2  13         0.0000000433
              3  11         0.0000000428
              6  10         0.0000000385
              3   3         0.0000000379
              2  12         0.0000000368
              3   4         0.0000000347
              1  37        -0.0000000344
              5   2        -0.0000000329
              4  17         0.0000000313
              6  29        -0.0000000310
              1   4        -0.0000000280
              0   2         0.0000000279
              6  38         0.0000000269
              0  27         0.0000000268
              5  13         0.0000000248
              6  21        -0.0000000232
              7  32         0.0000000230
              1  22        -0.0000000225
              0  36         0.0000000199
              0  23         0.0000000188
              3  14         0.0000000183
              4  39        -0.0000000172
              5  27         0.0000000161
              5   1         0.0000000145
              1  42         0.0000000143
              0  43        -0.0000000141
              5  15        -0.0000000140
              4  28         0.0000000138
              6  32         0.0000000123
              2  27         0.0000000105
              5  19        -0.0000000105

    Largest TIjAb Amplitudes:
      7   7   0   0        -0.4830483104
      7   7   0  10        -0.0918742886
      7   7  10   0        -0.0918742886
      6   7   0   0        -0.0456999563
      7   6   0   0        -0.0456999563
      5   5  12  12        -0.0322490620
      6   7   0  10        -0.0318570491
      7   6  10   0        -0.0318570491
      2   7   0  12        -0.0269356285
      7   2  12   0        -0.0269356285
      4   7   0   9        -0.0256370098
      7   4   9   0        -0.0256370098
      7   7   0   6        -0.0255714344
      7   7   6   0        -0.0255714344
      2   7   0   2        -0.0251235283
      7   2   2   0        -0.0251235283
      3   7   0   3        -0.0236601379
      7   3   3   0        -0.0236601379
      6   6   0   0        -0.0236108958
      2   7   0   1        -0.0231871960
      7   2   1   0        -0.0231871960
      4   4   6   6        -0.0228210773
      6   7  10   0        -0.0220692226
      7   6   0  10        -0.0220692226
      5   5   4   4        -0.0218730865
      4   7   6   9        -0.0214906435
      7   4   9   6        -0.0214906435
      6   6   5   5        -0.0206810621
      7   7   9   9        -0.0206197995
      6   7   0   6         0.0199458329
      7   6   6   0         0.0199458329
      4   6   6   5        -0.0198291244
      6   4   5   6        -0.0198291244
      3   7   0   4        -0.0196773220
      7   3   4   0        -0.0196773220
      5   7   4   9         0.0195612267
      7   5   9   4         0.0195612267
      5   7  12  10        -0.0194094109
      7   5  10  12        -0.0194094109
      3   7   0  11         0.0193588423
      7   3  11   0         0.0193588423
      4   7   9   0        -0.0191921513
      7   4   0   9        -0.0191921513
      5   7  12   0        -0.0187241659
      7   5   0  12        -0.0187241659
      3   7   3   0        -0.0183646389
      7   3   0   3        -0.0183646389
      3   7   0  14        -0.0182650921
      7   3  14   0        -0.0182650921
      2   7  12   0        -0.0182413609
      7   2   0  12        -0.0182413609
      5   7   0   2         0.0182066073
      7   5   2   0         0.0182066073
      6   7   5   9        -0.0175150069
      7   6   9   5        -0.0175150069
      2   7   1   0        -0.0174250574
      7   2   0   1        -0.0174250574
      4   5   6   4         0.0171286864
      5   4   4   6         0.0171286864
      5   6   4   5         0.0163575113
      6   5   5   4         0.0163575113
      3   7   1   9        -0.0162040572
      7   3   9   1        -0.0162040572
      7   7  10  10        -0.0159887128
      2   7   2   0        -0.0156441550
      7   2   0   2        -0.0156441550
      3   3   0   0        -0.0155987668
      2   2  12  12        -0.0150445899
      4   7   0   5         0.0149471078
      7   4   5   0         0.0149471078
      2   7   0  15        -0.0149299622
      7   2  15   0        -0.0149299622
      4   4   2   2        -0.0147201938
      6   7  10  10        -0.0147102023
      7   6  10  10        -0.0147102023
      6   6   2   2        -0.0142861624
      3   5   1   4         0.0141744702
      5   3   4   1         0.0141744702
      7   7   6   6        -0.0141594886
      3   7   4   0        -0.0138119777
      7   3   0   4        -0.0138119777
      5   6  12   0        -0.0136827643
      6   5   0  12        -0.0136827643
      5   5   0   0        -0.0136156357
      3   5   3  12        -0.0134429271
      5   3  12   3        -0.0134429271
      6   7   0  16        -0.0133409745
      7   6  16   0        -0.0133409745
      3   4   1   6        -0.0132744504
      4   3   6   1        -0.0132744504
      3   3  12  12        -0.0130565226
      3   6   1   5        -0.0130030802
      6   3   5   1        -0.0130030802
      4   7   5   0         0.0129164000
      7   4   0   5         0.0129164000
      4   4   3   3        -0.0129065668
      4   6   3   2         0.0127833371
      6   4   2   3         0.0127833371
      4   6   2   3         0.0127209230
      6   4   3   2         0.0127209230
      2   5  13  12        -0.0126198412
      5   2  12  13        -0.0126198412
      6   6   3   3        -0.0126077143
      7   7   0   7        -0.0125583542
      7   7   7   0        -0.0125583542
      6   6   6   6        -0.0125035523
      3   3   3   3        -0.0123132138
      5   7   0  12        -0.0122950150
      7   5  12   0        -0.0122950150
      5   7   2   0         0.0122660456
      7   5   0   2         0.0122660456
      4   4   9   9        -0.0121828395
      3   7  13   9        -0.0121362997
      7   3   9  13        -0.0121362997
      2   7   0  13        -0.0121102294
      7   2  13   0        -0.0121102294
      3   3   1   1        -0.0117992430
      6   6  10  10        -0.0117627110
      3   6   0  18         0.0117330273
      6   3  18   0         0.0117330273
      4   4   0   6        -0.0116919750
      4   4   6   0        -0.0116919750
      4   7   7   9        -0.0115798705
      7   4   9   7        -0.0115798705
      4   7   0  17        -0.0115777186
      7   4  17   0        -0.0115777186
      3   7  14   0        -0.0115375185
      7   3   0  14        -0.0115375185
      4   4   5   5        -0.0115232266
      4   6   5   6        -0.0114886565
      6   4   6   5        -0.0114886565
      2   7   1  10        -0.0114448492
      7   2  10   1        -0.0114448492
      5   6  12  10        -0.0114006223
      6   5  10  12        -0.0114006223
      3   3   4   4        -0.0113245798
      5   5   6   6        -0.0112229806
      2   7  12  10        -0.0111819410
      7   2  10  12        -0.0111819410
      3   4  13   6        -0.0111199755
      4   3   6  13        -0.0111199755
      3   6  13   5        -0.0110075236
      6   3   5  13        -0.0110075236
      5   7   0  15         0.0109748873
      7   5  15   0         0.0109748873
      2   7  13   0        -0.0109445392
      7   2   0  13        -0.0109445392
      5   5   3   3        -0.0108895444
      3   7   0  26         0.0108827168
      7   3  26   0         0.0108827168
      4   6   6   9         0.0108674761
      6   4   9   6         0.0108674761
      3   4   0   2        -0.0108554849
      4   3   2   0        -0.0108554849
      2   7  13  10        -0.0108343269
      7   2  10  13        -0.0108343269
      2   4   0  18        -0.0106667790
      4   2  18   0        -0.0106667790
      3   5  13   4         0.0105680312
      5   3   4  13         0.0105680312
      2   2   0   0        -0.0104908137
      3   3  14  14        -0.0104713995
      2   5   0  21        -0.0104590875
      5   2  21   0        -0.0104590875
      4   4  18  18        -0.0104515986
      4   7   9   6        -0.0104471049
      7   4   6   9        -0.0104471049
      3   5   4  12        -0.0103678593
      5   3  12   4        -0.0103678593
      6   7   6   6         0.0102841324
      7   6   6   6         0.0102841324
      2   5   1  12        -0.0102696143
      5   2  12   1        -0.0102696143
      6   6  18  18        -0.0101253919
      4   4   5   9         0.0101236099
      4   4   9   5         0.0101236099
      5   6   6   2        -0.0100412974
      6   5   2   6        -0.0100412974
      2   7   3   9        -0.0100250805
      7   2   9   3        -0.0100250805
      4   4   7   7        -0.0100117250
      3   5  12   3        -0.0099949110
      5   3   3  12        -0.0099949110
      2   7   0  23        -0.0099367847
      7   2  23   0        -0.0099367847
      4   6   9   6         0.0099004504
      6   4   6   9         0.0099004504
      4   4   0   0        -0.0098097069
      4   4  14  14        -0.0097954575
      3   5   0   5        -0.0096663117
      5   3   5   0        -0.0096663117
      6   6  17  17        -0.0096132587
      4   5   9  12        -0.0096128516
      5   4  12   9        -0.0096128516
      2   2  13  13        -0.0095882948
      6   7   9   9         0.0095520465
      7   6   9   9         0.0095520465
      3   7   3  10        -0.0095007803
      7   3  10   3        -0.0095007803
      2   6   0  19        -0.0094689470
      6   2  19   0        -0.0094689470
      4   5   8  12         0.0094543087
      5   4  12   8         0.0094543087
      5   6  12   7         0.0094280197
      6   5   7  12         0.0094280197
      4   4  16  16        -0.0093877694
      6   6  14  14        -0.0093720057
      4   4  15  15        -0.0093696926
      3   5   2   3         0.0093433349
      5   3   3   2         0.0093433349
      6   6   6  10         0.0093306672
      6   6  10   6         0.0093306672
      7   7   2   2        -0.0093247802
      3   5   3   2         0.0093241599
      5   3   2   3         0.0093241599
      5   5   5   5        -0.0092921763
      4   6  16  17        -0.0092776468
      6   4  17  16        -0.0092776468
      4   6  14   2         0.0092547355
      6   4   2  14         0.0092547355
      5   7  12   7        -0.0092530880
      7   5   7  12        -0.0092530880
      2   5  12  12        -0.0092214108
      5   2  12  12        -0.0092214108
      6   6   8   8        -0.0091512328
      4   6   2  14         0.0090939014
      6   4  14   2         0.0090939014
      3   3   3  14        -0.0090887669
      3   3  14   3        -0.0090887669
      6   6  15  15        -0.0090598059
      3   7   4  10        -0.0090239697
      7   3  10   4        -0.0090239697
      3   3   2   2        -0.0090075835
      6   6   0  10        -0.0089925066
      6   6  10   0        -0.0089925066
      3   7   2   9        -0.0089655680
      7   3   9   2        -0.0089655680
      2   2   6   6        -0.0089609301
      5   5  16  16        -0.0089423873
      5   5  17  17        -0.0089284842
      4   5   2   5        -0.0089224983
      5   4   5   2        -0.0089224983
      3   5   0  17         0.0089203976
      5   3  17   0         0.0089203976
      4   4  19  19        -0.0089020258
      4   7   9  10        -0.0088408760
      7   4  10   9        -0.0088408760
      3   4   0  19         0.0087877705
      4   3  19   0         0.0087877705
      2   2  12  13        -0.0087821271
      2   2  13  12        -0.0087821271
      6   7   8   9        -0.0087753129
      7   6   9   8        -0.0087753129
      4   6  14  15         0.0086588719
      6   4  15  14         0.0086588719
      4   6   6  17         0.0086326522
      6   4  17   6         0.0086326522
      4   6  19  18        -0.0086286498
      6   4  18  19        -0.0086286498
      4   6  15  14         0.0085899285
      6   4  14  15         0.0085899285
      6   6  19  19        -0.0085529074
      4   6  18  19        -0.0085360903
      6   4  19  18        -0.0085360903
      2   7  10  12        -0.0085036234
      7   2  12  10        -0.0085036234
      7   7   1   1        -0.0084943986
      4   4   6  16         0.0084268900
      4   4  16   6         0.0084268900
      3   3  13  13        -0.0084077245
      6   7   6   0         0.0083845092
      7   6   0   6         0.0083845092
      4   6   7   8        -0.0083463066
      6   4   8   7        -0.0083463066
      5   5   2   2        -0.0083072372
      4   4  17  17        -0.0082815632
      5   5  22  22        -0.0082777846
      6   6   5   9         0.0082747890
      6   6   9   5         0.0082747890
      3   4   4   9        -0.0082314843
      4   3   9   4        -0.0082314843
      3   3   1  13        -0.0082267410
      3   3  13   1        -0.0082267410
      4   7   2  11         0.0082141956
      7   4  11   2         0.0082141956
      3   4   0  15        -0.0081618368
      4   3  15   0        -0.0081618368
      2   5  11   4         0.0081468406
      5   2   4  11         0.0081468406
      7   7   7  10        -0.0080945475
      7   7  10   7        -0.0080945475
      4   5  15  17         0.0080894300
      5   4  17  15         0.0080894300
      2   4  13   9        -0.0080726288
      4   2   9  13        -0.0080726288
      2   5   3   4         0.0080568991
      5   2   4   3         0.0080568991
      2   2  10  10        -0.0080407571
      2   7  10   1        -0.0080125021
      7   2   1  10        -0.0080125021
      2   2   0  10        -0.0080045258
      2   2  10   0        -0.0080045258
      5   6  16  15         0.0080011081
      6   5  15  16         0.0080011081
      3   5  11  12        -0.0079773164
      5   3  12  11        -0.0079773164
      2   6  13  10        -0.0079675290
      6   2  10  13        -0.0079675290
      5   5   1   1        -0.0079674855
      2   2   5   5        -0.0079653340
      4   6   5  10         0.0079606688
      6   4  10   5         0.0079606688
      5   5   2  12         0.0079483910
      5   5  12   2         0.0079483910
      3   6   4  10        -0.0079205414
      6   3  10   4        -0.0079205414
      3   5   4   1         0.0079171530
      5   3   1   4         0.0079171530
      3   3   3   4        -0.0078715307
      3   3   4   3        -0.0078715307
      5   5  20  20        -0.0078644139
      6   7  21   0        -0.0078481835
      7   6   0  21        -0.0078481835
      2   6   1  10        -0.0078183016
      6   2  10   1        -0.0078183016
      3   7   9   1        -0.0078108804
      7   3   1   9        -0.0078108804
      6   6  16  16        -0.0078077787
      3   6   4   6         0.0077709140
      6   3   6   4         0.0077709140
      5   5  21  21        -0.0077610814
      6   6   5  17         0.0077253341
      6   6  17   5         0.0077253341
      4   4   2  15        -0.0077174261
      4   4  15   2        -0.0077174261
      4   5   7   4         0.0077092848
      5   4   4   7         0.0077092848
      2   7  11   9        -0.0077086340
      7   2   9  11        -0.0077086340
      4   5   3   6         0.0076530496
      5   4   6   3         0.0076530496
      3   4   4   5         0.0076111205
      4   3   5   4         0.0076111205
      7   7  11  11        -0.0075831907
      4   4   3  14        -0.0075592717
      4   4  14   3        -0.0075592717
      7   7  12  12        -0.0075205764
      4   6  10   5         0.0075007566
      6   4   5  10         0.0075007566
      2   7  15   0        -0.0074897247
      7   2   0  15        -0.0074897247
      4   7  17   0        -0.0074892552
      7   4   0  17        -0.0074892552
      3   5   0  20        -0.0074721176
      5   3  20   0        -0.0074721176
      4   6  17  16        -0.0074596914
      6   4  16  17        -0.0074596914
      3   5   2  14         0.0074509382
      5   3  14   2         0.0074509382
      5   5  14  14        -0.0074005209
      3   3  15  15        -0.0073912325
      4   4   0  16         0.0073795670
      4   4  16   0         0.0073795670
      4   6   7   5        -0.0073468063
      6   4   5   7        -0.0073468063
      4   6   0   5        -0.0073462688
      6   4   5   0        -0.0073462688
      4   6   0  17         0.0073300291
      6   4  17   0         0.0073300291
      2   5  12  27        -0.0073257862
      5   2  27  12        -0.0073257862
      3   7   0  22        -0.0073120455
      7   3  22   0        -0.0073120455
      3   5  14   2         0.0073096033
      5   3   2  14         0.0073096033
      4   7   0  20        -0.0073024160
      7   4  20   0        -0.0073024160
      3   5  14  12        -0.0073003721
      5   3  12  14        -0.0073003721
      6   6   2  15        -0.0072789491
      6   6  15   2        -0.0072789491
      3   3  10  10        -0.0072671134
      2   4   1   9        -0.0072560997
      4   2   9   1        -0.0072560997
      2   6  13   6         0.0071935578
      6   2   6  13         0.0071935578
      2   3   0   9        -0.0071905548
      3   2   9   0        -0.0071905548
      4   6   9  10        -0.0071794485
      6   4  10   9        -0.0071794485
      4   6   8   0         0.0071649869
      6   4   0   8         0.0071649869
      3   3   0  10        -0.0071610979
      3   3  10   0        -0.0071610979
      2   2  11  11        -0.0071539698
      4   6  16   5         0.0071290345
      6   4   5  16         0.0071290345
      6   7   0   7        -0.0071247821
      7   6   7   0        -0.0071247821
      2   6   3   5        -0.0071169823
      6   2   5   3        -0.0071169823
      2   4   3   6        -0.0070927767
      4   2   6   3        -0.0070927767
      6   6   3  14        -0.0070807371
      6   6  14   3        -0.0070807371
      2   5  12  13        -0.0070680766
      5   2  13  12        -0.0070680766
      5   5   3  14        -0.0070346075
      5   5  14   3        -0.0070346075
      4   5   2  17         0.0070318740
      5   4  17   2         0.0070318740
      5   7  15   0         0.0070037313
      7   5   0  15         0.0070037313
      2   2   1  13        -0.0069759032
      2   2  13   1        -0.0069759032
      4   5  14   0         0.0069439423
      5   4   0  14         0.0069439423
      4   6  17   0         0.0069427159
      6   4   0  17         0.0069427159
      2   7  10   2        -0.0069395874
      7   2   2  10        -0.0069395874
      3   5   0   8         0.0069371772
      5   3   8   0         0.0069371772
      5   7  12  16        -0.0069273649
      7   5  16  12        -0.0069273649
      2   4  13   5         0.0069236009
      4   2   5  13         0.0069236009
      5   6   4   9        -0.0069134880
      6   5   9   4        -0.0069134880
      5   5   6  16         0.0069040219
      5   5  16   6         0.0069040219
      5   5   0   6        -0.0068886810
      5   5   6   0        -0.0068886810
      5   6  16   2         0.0068561561
      6   5   2  16         0.0068561561
      3   5  14  15         0.0068428286
      5   3  15  14         0.0068428286
      2   6  12  10        -0.0068383491
      6   2  10  12        -0.0068383491
      7   7   0  29        -0.0068353483
      7   7  29   0        -0.0068353483
      4   4   6   7        -0.0068107979
      4   4   7   6        -0.0068107979
      5   7   1   6         0.0068038655
      7   5   6   1         0.0068038655
      4   7   5   6         0.0067751497
      7   4   6   5         0.0067751497
      3   3   9   9        -0.0067717577
      5   6  20  18         0.0067307692
      6   5  18  20         0.0067307692
      3   5   2   4         0.0067239941
      5   3   4   2         0.0067239941
      2   2   1  12        -0.0067133222
      2   2  12   1        -0.0067133222
      5   7   6  12        -0.0067004638
      7   5  12   6        -0.0067004638
      3   3  19  19        -0.0066938579
      4   5  14  16        -0.0066878334
      5   4  16  14        -0.0066878334
      5   5  11  11        -0.0066810755
      4   4  11  11        -0.0066776291
      4   5   5  12         0.0066714450
      5   4  12   5         0.0066714450
      3   5  15  14         0.0066423431
      5   3  14  15         0.0066423431
      4   7   6  20        -0.0066251972
      7   4  20   6        -0.0066251972
      4   7   5  10         0.0066197062
      7   4  10   5         0.0066197062
      5   7   3   9         0.0066165978
      7   5   9   3         0.0066165978
      4   5   6  22         0.0066079842
      5   4  22   6         0.0066079842
      2   7  23   0        -0.0065949530
      7   2   0  23        -0.0065949530
      4   5  18  21        -0.0065935025
      5   4  21  18        -0.0065935025
      5   6   5   3         0.0065590747
      6   5   3   5         0.0065590747
      4   5   0   4         0.0065548326
      5   4   4   0         0.0065548326
      3   4  17  14        -0.0065483571
      4   3  14  17        -0.0065483571
      3   7   4   6        -0.0065363478
      7   3   6   4        -0.0065363478
      3   5  12  22         0.0065014759
      5   3  22  12         0.0065014759
      5   6  17  14        -0.0064890895
      6   5  14  17        -0.0064890895
      3   7  10   3        -0.0064859767
      7   3   3  10        -0.0064859767
      3   3  17  17        -0.0064789490
      2   2   1   1        -0.0064622773
      3   4   6  13        -0.0064491628
      4   3  13   6        -0.0064491628
      2   5  27  12        -0.0064190359
      5   2  12  27        -0.0064190359
      3   3   6   6        -0.0064171876
      3   3   5   5        -0.0064116680
      4   4   1   1        -0.0064095105
      3   6  16  14        -0.0064094458
      6   3  14  16        -0.0064094458
      3   4   2   6        -0.0064088850
      4   3   6   2        -0.0064088850
      6   7   3  11        -0.0063882025
      7   6  11   3        -0.0063882025
      6   6  11  11        -0.0063750768
      5   5   0  16         0.0063673335
      5   5  16   0         0.0063673335
      2   3   1   4        -0.0063426831
      3   2   4   1        -0.0063426831
      2   4  12   9        -0.0063299647
      4   2   9  12        -0.0063299647
      3   3   0  21         0.0063281553
      3   3  21   0         0.0063281553
      3   3  18  18        -0.0063022631
      4   7   2   3        -0.0063014725
      7   4   3   2        -0.0063014725
      6   6   1   1        -0.0063006165
      2   5   0   6        -0.0062589054
      5   2   6   0        -0.0062589054
      3   7   9   2        -0.0062569481
      7   3   2   9        -0.0062569481
      2   4  18   0        -0.0062555909
      4   2   0  18        -0.0062555909
      2   4  11   7        -0.0062530078
      4   2   7  11        -0.0062530078
      5   6   4   8         0.0062517687
      6   5   8   4         0.0062517687
      3   4   6   1        -0.0062450654
      4   3   1   6        -0.0062450654
      2   4   1   5         0.0061979525
      4   2   5   1         0.0061979525
      3   7  11   0         0.0061861221
      7   3   0  11         0.0061861221
      5   6  12   6         0.0061837846
      6   5   6  12         0.0061837846
      3   3   2  15        -0.0061786777
      3   3  15   2        -0.0061786777
      5   6   0   2        -0.0061780764
      6   5   2   0        -0.0061780764
      2   2  17  17        -0.0061765491
      2   2  18  18        -0.0061723680
      4   5   3   0         0.0061668319
      5   4   0   3         0.0061668319
      3   3  11  11        -0.0061655068
      3   6   3  10        -0.0061591271
      6   3  10   3        -0.0061591271
      4   7  18  12        -0.0061480250
      7   4  12  18        -0.0061480250
      3   6  18   0         0.0061152117
      6   3   0  18         0.0061152117
      2   3   3   2        -0.0061137631
      3   2   2   3        -0.0061137631
      3   6   5  13        -0.0061042333
      6   3  13   5        -0.0061042333
      3   6   1   9         0.0061022454
      6   3   9   1         0.0061022454
      3   4  19   0         0.0060926870
      4   3   0  19         0.0060926870
      6   7   0  21        -0.0060824727
      7   6  21   0        -0.0060824727
      2   2  16  16        -0.0060814798
      2   6   1   6         0.0060806256
      6   2   6   1         0.0060806256
      3   4   1   7        -0.0060698908
      4   3   7   1        -0.0060698908
      3   6   2   5        -0.0060616885
      6   3   5   2        -0.0060616885
      3   6   6   3         0.0060613310
      6   3   3   6         0.0060613310
      3   4   3   9        -0.0060597652
      4   3   9   3        -0.0060597652
      7   7   3   3        -0.0060541354
      5   7   0  23        -0.0060442610
      7   5  23   0        -0.0060442610
      2   7  10  13        -0.0060417198
      7   2  13  10        -0.0060417198
      5   5   5  17         0.0060365986
      5   5  17   5         0.0060365986
      3   3  16  16        -0.0060283436
      3   4   3   5         0.0059964786
      4   3   5   3         0.0059964786
      4   4   8   8        -0.0059758774
      3   6   5   1        -0.0059755627
      6   3   1   5        -0.0059755627
      4   4  13  13        -0.0059722045
      2   7   0  27         0.0059676196
      7   2  27   0         0.0059676196
      4   6  11  15        -0.0059563790
      6   4  15  11        -0.0059563790
      4   5  14   6         0.0059517169
      5   4   6  14         0.0059517169
      2   5  21   0        -0.0059517052
      5   2   0  21        -0.0059517052
      2   6  11   8        -0.0059333926
      6   2   8  11        -0.0059333926
      5   6  11  17         0.0059311943
      6   5  17  11         0.0059311943
      5   6  13   0        -0.0059028257
      6   5   0  13        -0.0059028257
      2   2   9   9        -0.0058933000
      2   2   6  16         0.0058900726
      2   2  16   6         0.0058900726
      3   3   4  14        -0.0058892300
      3   3  14   4        -0.0058892300
      2   3  13   4        -0.0058886881
      3   2   4  13        -0.0058886881
      4   6  15  11        -0.0058823534
      6   4  11  15        -0.0058823534
      3   6   3   6         0.0058804212
      6   3   6   3         0.0058804212
      6   7   5   5        -0.0058751231
      7   6   5   5        -0.0058751231
      5   5   4  22        -0.0058479159
      5   5  22   4        -0.0058479159
      6   6   6  16         0.0058428446
      6   6  16   6         0.0058428446
      5   6   6  15        -0.0058425940
      6   5  15   6        -0.0058425940
      6   6  13  13        -0.0058313211
      2   6  11   5        -0.0058197977
      6   2   5  11        -0.0058197977
      4   6   8   7        -0.0058160644
      6   4   7   8        -0.0058160644
      5   6  22   5         0.0058123937
      6   5   5  22         0.0058123937
      4   6  17   6         0.0058098808
      6   4   6  17         0.0058098808
      4   5  16  11         0.0058083111
      5   4  11  16         0.0058083111
      4   7   8  10         0.0057978277
      7   4  10   8         0.0057978277
      3   5  12  14        -0.0057817022
      5   3  14  12        -0.0057817022
      6   6   5   8        -0.0057748289
      6   6   8   5        -0.0057748289
      5   5  13  13        -0.0057747073
      6   7   7  10         0.0057660668
      7   6  10   7         0.0057660668
      4   7   2   4        -0.0057520263
      7   4   4   2        -0.0057520263
      2   2   0   6        -0.0057487358
      2   2   6   0        -0.0057487358
      6   6   7   7        -0.0057457918
      2   3  18  19         0.0057365871
      3   2  19  18         0.0057365871
      3   5   8   0         0.0057254847
      5   3   0   8         0.0057254847
      2   3   3  13        -0.0057115693
      3   2  13   3        -0.0057115693
      7   7   1   2        -0.0056948348
      7   7   2   1        -0.0056948348
      2   3   2   3        -0.0056791161
      3   2   3   2        -0.0056791161
      2   6   1   0        -0.0056635040
      6   2   0   1        -0.0056635040
      5   7   5  11         0.0056355600
      7   5  11   5         0.0056355600
      3   6  17  15         0.0056250597
      6   3  15  17         0.0056250597
      3   5  17   0         0.0056242117
      5   3   0  17         0.0056242117
      3   4  16  15         0.0056052237
      4   3  15  16         0.0056052237
      6   6   0   7         0.0055900017
      6   6   7   0         0.0055900017
      4   7   0   8        -0.0055786374
      7   4   8   0        -0.0055786374
      2   2  21  21        -0.0055688427
      6   6  12  12        -0.0055657557
      3   7  14  10        -0.0055634884
      7   3  10  14        -0.0055634884
      3   6   6   4         0.0055564474
      6   3   4   6         0.0055564474
      3   3   2  12         0.0055479976
      3   3  12   2         0.0055479976
      3   3  22  22        -0.0055452083
      2   3   3   1        -0.0055209989
      3   2   1   3        -0.0055209989
      6   7  17  20         0.0055166013
      7   6  20  17         0.0055166013
      3   7  26   0         0.0055095043
      7   3   0  26         0.0055095043
      3   5   3  15         0.0055075201
      5   3  15   3         0.0055075201
      4   4  12  12        -0.0055029745
      5   7  10  12        -0.0055022418
      7   5  12  10        -0.0055022418
      2   7   2  10        -0.0055011889
      7   2  10   2        -0.0055011889
      5   5  27  27        -0.0054974528
      5   5  15  15        -0.0054774538
      4   4   5  17         0.0054752266
      4   4  17   5         0.0054752266
      3   4   3  24         0.0054743305
      4   3  24   3         0.0054743305
      2   4   3   7        -0.0054569414
      4   2   7   3        -0.0054569414
      2   6   6   1         0.0054420708
      6   2   1   6         0.0054420708
      3   4   5   3         0.0054381295
      4   3   3   5         0.0054381295
      6   6   7  10         0.0054227829
      6   6  10   7         0.0054227829
      3   7   9  13        -0.0054210895
      7   3  13   9        -0.0054210895
      3   4   5   4         0.0054118543
      4   3   4   5         0.0054118543
      2   3   9   0        -0.0054094519
      3   2   0   9        -0.0054094519
      2   7  14   9        -0.0054094006
      7   2   9  14        -0.0054094006
      3   6   3  25         0.0054043536
      6   3  25   3         0.0054043536
      6   7   5  20        -0.0054032007
      7   6  20   5        -0.0054032007
      2   2   5  17         0.0053989729
      2   2  17   5         0.0053989729
      3   4   6   2        -0.0053959804
      4   3   2   6        -0.0053959804
      2   6   6  13         0.0053839235
      6   2  13   6         0.0053839235
      3   7  10  14        -0.0053764735
      7   3  14  10        -0.0053764735
      2   7   6   1        -0.0053599080
      7   2   1   6        -0.0053599080
      4   7   2  14        -0.0053511931
      7   4  14   2        -0.0053511931
      6   6  23  23        -0.0053505193
      5   5   2  15        -0.0053500745
      5   5  15   2        -0.0053500745
      4   7  16  20         0.0053445663
      7   4  20  16         0.0053445663
      5   7   4   5         0.0053433023
      7   5   5   4         0.0053433023
      4   4  23  23        -0.0053090932
      3   6  12  17         0.0053063558
      6   3  17  12         0.0053063558
      2   5   6  21        -0.0052880770
      5   2  21   6        -0.0052880770
      5   6   1   6        -0.0052856162
      6   5   6   1        -0.0052856162
      2   6  12   0        -0.0052851856
      6   2   0  12        -0.0052851856
      5   7   9   4         0.0052746238
      7   5   4   9         0.0052746238
      2   6  12   6         0.0052680308
      6   2   6  12         0.0052680308
      3   3  20  20        -0.0052672524
      4   4  24  24        -0.0052642875
      2   3  13   3        -0.0052558038
      3   2   3  13        -0.0052558038
      2   3   5  10        -0.0052550668
      3   2  10   5        -0.0052550668
      2   4   5   1         0.0052433085
      4   2   1   5         0.0052433085
      4   5  19  20         0.0052426871
      5   4  20  19         0.0052426871
      5   7  21   2        -0.0052396874
      7   5   2  21        -0.0052396874
      3   6  12   8         0.0052385606
      6   3   8  12         0.0052385606
      3   7  12  20        -0.0052374107
      7   3  20  12        -0.0052374107
      5   7  16  19        -0.0052303553
      7   5  19  16        -0.0052303553
      3   5  10  20        -0.0052151971
      5   3  20  10        -0.0052151971
      4   7  18  19         0.0052126684
      7   4  19  18         0.0052126684
      3   3  21  21        -0.0052017839
      2   4  11   6        -0.0051840073
      4   2   6  11        -0.0051840073
      4   5  16  22        -0.0051831873
      5   4  22  16        -0.0051831873
      2   3  14   2        -0.0051806247
      3   2   2  14        -0.0051806247
      2   3   2  14        -0.0051785525
      3   2  14   2        -0.0051785525
      3   4  12  16         0.0051762973
      4   3  16  12         0.0051762973
      3   4   9   4        -0.0051711109
      4   3   4   9        -0.0051711109
      2   7   5  18         0.0051703267
      7   2  18   5         0.0051703267
      2   4   9   1        -0.0051534692
      4   2   1   9        -0.0051534692
      5   6   0  15        -0.0051530130
      6   5  15   0        -0.0051530130
      2   6  19   0        -0.0051494930
      6   2   0  19        -0.0051494930
      2   5   3   3         0.0051423394
      5   2   3   3         0.0051423394
      2   4  12   5         0.0051404794
      4   2   5  12         0.0051404794
      2   3   0  17        -0.0051274386
      3   2  17   0        -0.0051274386
      4   4   6  10         0.0051209112
      4   4  10   6         0.0051209112
      2   2   4   4        -0.0051187558
      2   2  20  20        -0.0051178208
      6   6  25  25        -0.0051127249
      3   4  14  17        -0.0051084827
      4   3  17  14        -0.0051084827
      6   6   9   9        -0.0051034903
      4   4   4   4        -0.0051014131
      3   6  10  18         0.0051013877
      6   3  18  10         0.0051013877
      2   6  10   1        -0.0050944753
      6   2   1  10        -0.0050944753
      3   6  11   0        -0.0050894163
      6   3   0  11        -0.0050894163
      5   6  22  17        -0.0050844282
      6   5  17  22        -0.0050844282
      3   3   2  13        -0.0050824036
      3   3  13   2        -0.0050824036
      2   5   2   2         0.0050782180
      5   2   2   2         0.0050782180
      2   4   5  13         0.0050770517
      4   2  13   5         0.0050770517
      3   5  15   3         0.0050560301
      5   3   3  15         0.0050560301
      4   5  17  15         0.0050460938
      5   4  15  17         0.0050460938
      3   7  10   4        -0.0050454738
      7   3   4  10        -0.0050454738
      5   5   1  13        -0.0050402308
      5   5  13   1        -0.0050402308
      3   6  10   4        -0.0050359716
      6   3   4  10        -0.0050359716
      2   2   3   3        -0.0050227780
      2   3  19  18         0.0050103321
      3   2  18  19         0.0050103321
      2   3   6   9        -0.0050041701
      3   2   9   6        -0.0050041701
      5   7  17  18        -0.0050041205
      7   5  18  17        -0.0050041205
      7   7  10  16        -0.0050019702
      7   7  16  10        -0.0050019702
      4   7   3   2        -0.0049978661
      7   4   2   3        -0.0049978661
      5   6   2   6        -0.0049913157
      6   5   6   2        -0.0049913157
      4   5  15   5        -0.0049790418
      5   4   5  15        -0.0049790418
      3   7  10  26         0.0049701319
      7   3  26  10         0.0049701319
      4   6   3  13         0.0049604836
      6   4  13   3         0.0049604836
      3   4  12   7         0.0049522793
      4   3   7  12         0.0049522793
      5   5  11  22         0.0049472633
      5   5  22  11         0.0049472633
      7   7   4   4        -0.0049436119
      4   4  22  22        -0.0049435052
      4   5   2   9         0.0049416137
      5   4   9   2         0.0049416137
      3   6  12  24         0.0049393347
      6   3  24  12         0.0049393347
      4   4  11  14         0.0049388041
      4   4  14  11         0.0049388041
      2   2  22  22        -0.0049386165
      3   4  12  25         0.0049300194
      4   3  25  12         0.0049300194
      5   6  21  19        -0.0049274203
      6   5  19  21        -0.0049274203
      5   6  15  16         0.0049206607
      6   5  16  15         0.0049206607
      3   4   9   3        -0.0049140775
      4   3   3   9        -0.0049140775
      6   6  24  24        -0.0049123367
      2   5   6  16         0.0049120261
      5   2  16   6         0.0049120261
      3   6  14  16        -0.0049091675
      6   3  16  14        -0.0049091675
      4   6  13   3         0.0049005562
      6   4   3  13         0.0049005562
      3   4  15   0        -0.0048839295
      4   3   0  15        -0.0048839295
      5   7  23   0        -0.0048835156
      7   5   0  23        -0.0048835156
      4   4  25  25        -0.0048713893
      3   3  24  24        -0.0048688757
      3   4  13   7        -0.0048481770
      4   3   7  13        -0.0048481770
      6   6  22  22        -0.0048478972
      4   6  24  25        -0.0048448901
      6   4  25  24        -0.0048448901
      3   6   1   8        -0.0048361021
      6   3   8   1        -0.0048361021
      4   6   8  10         0.0048335748
      6   4  10   8         0.0048335748
      4   5   5   2        -0.0048315904
      5   4   2   5        -0.0048315904
      2   6   3   8        -0.0048279678
      6   2   8   3        -0.0048279678
      3   3  25  25        -0.0048099117
      2   5  14   4         0.0048097099
      5   2   4  14         0.0048097099
      3   5   4   2         0.0048054652
      5   3   2   4         0.0048054652
      2   5   6   0        -0.0047965541
      5   2   0   6        -0.0047965541
      2   5   4  11         0.0047781193
      5   2  11   4         0.0047781193
      4   5  18   6        -0.0047617925
      5   4   6  18        -0.0047617925
      6   6   4   4        -0.0047613422
      2   4   9  13        -0.0047591396
      4   2  13   9        -0.0047591396
      5   7  22  20         0.0047483897
      7   5  20  22         0.0047483897
      4   7  18   1        -0.0047458418
      7   4   1  18        -0.0047458418
      6   6  11  14         0.0047409504
      6   6  14  11         0.0047409504
      4   5  11  16         0.0047402290
      5   4  16  11         0.0047402290
      5   5  12  15         0.0047389969
      5   5  15  12         0.0047389969
      3   6   0  14         0.0047384325
      6   3  14   0         0.0047384325
      7   7   5   9        -0.0047259756
      7   7   9   5        -0.0047259756
      4   7  17   6        -0.0047256192
      7   4   6  17        -0.0047256192
      2   7  13   6        -0.0047189605
      7   2   6  13        -0.0047189605
      4   5   5   1        -0.0047164069
      5   4   1   5        -0.0047164069
      6   7   3   4         0.0047152820
      7   6   4   3         0.0047152820
      2   3   1   3        -0.0047152098
      3   2   3   1        -0.0047152098
      6   7  19  12        -0.0047128595
      7   6  12  19        -0.0047128595
[...]
      7   5  14  32        -0.0000000107
      3   4   2  33        -0.0000000107
      4   3  33   2        -0.0000000107
      3   6  38  35        -0.0000000107
      6   3  35  38        -0.0000000107
      0   2  34  43         0.0000000107
      2   0  43  34         0.0000000107
      1   3   0  28         0.0000000107
      3   1  28   0         0.0000000107
      0   0  14  23         0.0000000107
      0   0  23  14         0.0000000107
      1   2  38  25         0.0000000107
      2   1  25  38         0.0000000107
      5   6  30  32        -0.0000000107
      6   5  32  30        -0.0000000107
      1   4  26   0        -0.0000000107
      4   1   0  26        -0.0000000107
      2   7  25  18        -0.0000000107
      7   2  18  25        -0.0000000107
      0   4  17   4        -0.0000000107
      4   0   4  17        -0.0000000107
      0   7   1  33         0.0000000107
      6   7  30  15        -0.0000000107
      7   0  33   1         0.0000000107
      7   6  15  30        -0.0000000107
      0   7  38  22        -0.0000000107
      7   0  22  38        -0.0000000107
      3   6  26  39         0.0000000107
      6   3  39  26         0.0000000107
      1   7   0  35         0.0000000107
      7   1  35   0         0.0000000107
      4   7  23  13        -0.0000000107
      7   4  13  23        -0.0000000107
      1   7   5   4         0.0000000107
      2   3  32  32         0.0000000107
      3   2  32  32         0.0000000107
      7   1   4   5         0.0000000107
      0   3  29   0        -0.0000000107
      3   0   0  29        -0.0000000107
      1   4  33  19        -0.0000000107
      4   1  19  33        -0.0000000107
      0   5  13  14        -0.0000000107
      1   5  10   6         0.0000000107
      5   0  14  13        -0.0000000107
      5   1   6  10         0.0000000107
      0   7  14  16        -0.0000000107
      7   0  16  14        -0.0000000107
      4   5  15  25        -0.0000000107
      5   4  25  15        -0.0000000107
      3   6  20  37         0.0000000107
      6   3  37  20         0.0000000107
      0   7   8  15        -0.0000000106
      4   4   1  37         0.0000000107
      4   4  37   1         0.0000000107
      7   0  15   8        -0.0000000106
      5   6  29  14         0.0000000106
      6   5  14  29         0.0000000106
      0   3  16  16        -0.0000000106
      3   0  16  16        -0.0000000106
      4   7  14  37         0.0000000106
      7   4  37  14         0.0000000106
      0   2   0   8        -0.0000000106
      2   0   8   0        -0.0000000106
      2   7  17  13        -0.0000000106
      7   2  13  17        -0.0000000106
      2   5   2  26        -0.0000000106
      5   2  26   2        -0.0000000106
      2   6  39  36        -0.0000000106
      6   2  36  39        -0.0000000106
      0   2   8  21        -0.0000000106
      2   0  21   8        -0.0000000106
      0   7  37  10         0.0000000106
      1   3  25  20         0.0000000106
      3   1  20  25         0.0000000106
      7   0  10  37         0.0000000106
      1   5   2  36         0.0000000106
      5   1  36   2         0.0000000106
      1   3  21  24         0.0000000106
      3   1  24  21         0.0000000106
      3   4  39   2         0.0000000106
      4   3   2  39         0.0000000106
      5   5  17  21        -0.0000000106
      5   5  21  17        -0.0000000106
      1   2  13   2        -0.0000000106
      2   1   2  13        -0.0000000106
      0   3  19  31        -0.0000000106
      3   0  31  19        -0.0000000106
      3   5   5  24         0.0000000106
      5   3  24   5         0.0000000106
      1   6  40  33         0.0000000106
      6   1  33  40         0.0000000106
      3   6   5  34        -0.0000000106
      6   3  34   5        -0.0000000106
      3   7  35  25         0.0000000106
      7   3  25  35         0.0000000106
      0   2   2  26         0.0000000106
      2   0  26   2         0.0000000106
      0   3  24   5        -0.0000000106
      3   0   5  24        -0.0000000106
      5   5   9  25        -0.0000000106
      5   5  25   9        -0.0000000106
      2   4  32   2        -0.0000000106
      2   6  35   9         0.0000000106
      4   2   2  32        -0.0000000106
      6   2   9  35         0.0000000106
      2   7   6  11         0.0000000106
      7   2  11   6         0.0000000106
      1   3   6  24        -0.0000000105
      3   1  24   6        -0.0000000105
      1   2  28  17         0.0000000105
      2   1  17  28         0.0000000105
      0   7  28  36        -0.0000000105
      7   0  36  28        -0.0000000105
      4   5   7  23         0.0000000105
      5   4  23   7         0.0000000105
      5   7  11   0        -0.0000000105
      6   7  16   8        -0.0000000105
      7   5   0  11        -0.0000000105
      7   6   8  16        -0.0000000105
      1   4   9  15        -0.0000000105
      1   5  26   4        -0.0000000105
      4   1  15   9        -0.0000000105
      5   1   4  26        -0.0000000105
      0   7  30   6         0.0000000105
      7   0   6  30         0.0000000105
      7   7   5  32        -0.0000000105
      7   7  32   5        -0.0000000105
      0   0   2  26         0.0000000105
      0   0  26   2         0.0000000105
      2   6  38  11         0.0000000105
      3   6   6  31         0.0000000105
      6   2  11  38         0.0000000105
      6   3  31   6         0.0000000105
      2   4  27  21        -0.0000000105
      4   2  21  27        -0.0000000105
      4   4  22  36         0.0000000105
      4   4  36  22         0.0000000105
      0   6  16   4        -0.0000000105
      1   6  38  27        -0.0000000105
      6   0   4  16        -0.0000000105
      6   1  27  38        -0.0000000105
      0   4  36   7        -0.0000000105
      0   7  18  21         0.0000000105
      4   0   7  36        -0.0000000105
      7   0  21  18         0.0000000105
      3   5  12  27        -0.0000000105
      5   3  27  12        -0.0000000105
      5   6  40  29        -0.0000000105
      6   5  29  40        -0.0000000105
      0   5  29   5        -0.0000000105
      5   0   5  29        -0.0000000105
      5   6  38  30         0.0000000105
      6   5  30  38         0.0000000105
      4   4   2  26         0.0000000105
      4   4  26   2         0.0000000105
      4   7   3  18         0.0000000105
      7   4  18   3         0.0000000105
      2   5   8  21         0.0000000105
      3   4  12  17        -0.0000000105
      4   3  17  12        -0.0000000105
      5   2  21   8         0.0000000105
      1   3  26  27         0.0000000105
      1   5  10  16        -0.0000000105
      3   1  27  26         0.0000000105
      5   1  16  10        -0.0000000105
      0   6  15  20         0.0000000105
      6   0  20  15         0.0000000105
      4   5   8   3        -0.0000000105
      5   4   3   8        -0.0000000105
      6   6   9  38        -0.0000000105
      6   6  38   9        -0.0000000105
      0   2  36  14         0.0000000105
      2   0  14  36         0.0000000105
      4   5  30  39         0.0000000105
      5   4  39  30         0.0000000105
      0   3   3  22         0.0000000105
      0   3  37   3        -0.0000000105
      3   0   3  37        -0.0000000105
      3   0  22   3         0.0000000105
      6   7  15  26        -0.0000000105
      7   6  26  15        -0.0000000105
      4   6   3  37         0.0000000105
      6   4  37   3         0.0000000105
      1   2  22   3        -0.0000000105
      2   1   3  22        -0.0000000105
      3   5   0  25         0.0000000105
      4   5  33  30        -0.0000000105
      5   3  25   0         0.0000000105
      5   4  30  33        -0.0000000105
      2   4  36   6        -0.0000000105
      4   2   6  36        -0.0000000105
      0   3  26  40         0.0000000104
      2   5  17  10        -0.0000000104
      3   0  40  26         0.0000000104
      5   2  10  17        -0.0000000104
      0   5  16  24         0.0000000104
      5   0  24  16         0.0000000104
      0   2  33  32         0.0000000104
      2   0  32  33         0.0000000104
      7   7  16  33         0.0000000104
      7   7  33  16         0.0000000104
      2   7   9  23         0.0000000104
      3   4  28  35        -0.0000000104
      4   3  35  28        -0.0000000104
      7   2  23   9         0.0000000104
      5   7  11  32        -0.0000000104
      7   5  32  11        -0.0000000104
      4   6  21  21        -0.0000000104
      6   4  21  21        -0.0000000104
      4   5  14  17         0.0000000104
      5   4  17  14         0.0000000104
      1   2  34  42        -0.0000000104
      2   1  42  34        -0.0000000104
      3   6   7  15        -0.0000000104
      6   3  15   7        -0.0000000104
      0   3  37  22         0.0000000104
      3   0  22  37         0.0000000104
      2   7  41  24        -0.0000000104
      7   2  24  41        -0.0000000104
      0   6   6  14        -0.0000000104
      4   4   6   9        -0.0000000104
      4   4   9   6        -0.0000000104
      6   0  14   6        -0.0000000104
      6   7  22  23        -0.0000000104
      7   6  23  22        -0.0000000104
      0   7   9  36        -0.0000000104
      2   7  38  22        -0.0000000104
      4   7  27  23         0.0000000104
      7   0  36   9        -0.0000000104
      7   2  22  38        -0.0000000104
      7   4  23  27         0.0000000104
      5   6   0  37        -0.0000000104
      6   5  37   0        -0.0000000104
      1   7  19   0         0.0000000103
      7   1   0  19         0.0000000103
      1   7  30   9        -0.0000000103
      7   1   9  30        -0.0000000103
      1   5  11  14         0.0000000103
      5   1  14  11         0.0000000103
      0   5  29  20        -0.0000000103
      1   5  37  42        -0.0000000103
      5   0  20  29        -0.0000000103
      5   1  42  37        -0.0000000103
      0   6  35   8         0.0000000103
      5   6  13   9        -0.0000000103
      6   0   8  35         0.0000000103
      6   5   9  13        -0.0000000103
      2   7  21  26         0.0000000103
      3   6  14   8        -0.0000000103
      4   4  23  37        -0.0000000103
      4   4  37  23        -0.0000000103
      5   6  14  10         0.0000000103
      6   3   8  14        -0.0000000103
      6   5  10  14         0.0000000103
      7   2  26  21         0.0000000103
      3   4  39  35         0.0000000103
      4   3  35  39         0.0000000103
      1   2  23  27         0.0000000103
      2   1  27  23         0.0000000103
      0   7  23  17         0.0000000103
      7   0  17  23         0.0000000103
      0   2  32  33         0.0000000103
      2   0  33  32         0.0000000103
      0   3  17  39         0.0000000103
      1   7   4  28         0.0000000103
      3   0  39  17         0.0000000103
      7   1  28   4         0.0000000103
      2   6  29  34        -0.0000000103
      6   2  34  29        -0.0000000103
      1   6  21  31         0.0000000103
      6   1  31  21         0.0000000103
      4   6   4   4         0.0000000103
      6   4   4   4         0.0000000103
      1   5  37  37         0.0000000103
      3   6   6  35        -0.0000000103
      5   1  37  37         0.0000000103
      6   3  35   6        -0.0000000103
      4   4  12  40        -0.0000000103
      4   4  40  12        -0.0000000103
      0   7  23   9        -0.0000000103
      2   4  34   5         0.0000000103
      4   2   5  34         0.0000000103
      7   0   9  23        -0.0000000103
      2   3   2  35         0.0000000103
      3   2  35   2         0.0000000103
      4   5  29   2        -0.0000000103
      5   4   2  29        -0.0000000103
      5   6   8  23        -0.0000000103
      6   5  23   8        -0.0000000103
      1   6  35   0        -0.0000000103
      6   1   0  35        -0.0000000103
      1   5  23   2         0.0000000103
      1   7  12  25        -0.0000000103
      5   1   2  23         0.0000000103
      7   1  25  12        -0.0000000103
      2   3   7  10        -0.0000000103
      3   2  10   7        -0.0000000103
      3   7  14  33        -0.0000000103
      7   3  33  14        -0.0000000103
      1   2  22  26        -0.0000000103
      1   4   1  39         0.0000000103
      2   1  26  22        -0.0000000103
      4   1  39   1         0.0000000103
      0   4  29  19         0.0000000103
      4   0  19  29         0.0000000103
      2   7  23  39         0.0000000103
      7   2  39  23         0.0000000103
      1   7   8  11        -0.0000000103
      7   1  11   8        -0.0000000103
      5   6  19  20        -0.0000000103
      6   5  20  19        -0.0000000103
      2   5  25  28         0.0000000103
      5   2  28  25         0.0000000103
      4   4   7  20         0.0000000102
      4   4  20   7         0.0000000102
      3   4   7  37        -0.0000000102
      4   3  37   7        -0.0000000102
      0   2  37   1         0.0000000102
      2   0   1  37         0.0000000102
      2   6   0  22         0.0000000102
      6   2  22   0         0.0000000102
      4   5   0  35        -0.0000000102
      5   4  35   0        -0.0000000102
      4   7  19  35         0.0000000102
      7   4  35  19         0.0000000102
      4   7  11  11        -0.0000000102
      7   4  11  11        -0.0000000102
      1   5  13  15         0.0000000102
      5   1  15  13         0.0000000102
      1   7   6  15         0.0000000102
      7   1  15   6         0.0000000102
      1   2  15  13        -0.0000000102
      2   1  13  15        -0.0000000102
      7   7   8  38         0.0000000102
      7   7  38   8         0.0000000102
      0   2  41  22         0.0000000102
      2   0  22  41         0.0000000102
      0   5  24   7        -0.0000000102
      5   0   7  24        -0.0000000102
      6   7  14  36         0.0000000102
      7   6  36  14         0.0000000102
      0   4  36  25        -0.0000000102
      4   0  25  36        -0.0000000102
      3   6   2  32        -0.0000000102
      6   3  32   2        -0.0000000102
      3   6  19   6        -0.0000000102
      6   3   6  19        -0.0000000102
      2   7  39   1         0.0000000102
      7   2   1  39         0.0000000102
      1   7  28  40         0.0000000102
      7   1  40  28         0.0000000102
      2   6  27  20         0.0000000102
      6   2  20  27         0.0000000102
      5   6  27   8        -0.0000000102
      6   5   8  27        -0.0000000102
      0   7  23  24        -0.0000000102
      2   4   9  34        -0.0000000102
      7   0  24  23        -0.0000000102
      2   5  16  20         0.0000000102
      2   5  32  39         0.0000000102
      4   2  34   9        -0.0000000102
      5   2  20  16         0.0000000102
      5   2  39  32         0.0000000102
      5   7  32  26         0.0000000102
      7   5  26  32         0.0000000102
      0   2  32  28         0.0000000102
      2   0  28  32         0.0000000102
      4   7   4   4         0.0000000102
      7   4   4   4         0.0000000102
      0   2  16   9         0.0000000101
      0   4  27   7         0.0000000101
      2   0   9  16         0.0000000101
      4   0   7  27         0.0000000101
      0   2  14  23         0.0000000101
      0   7  26   6         0.0000000101
      2   0  23  14         0.0000000101
      7   0   6  26         0.0000000101
      6   7  37  15         0.0000000101
      7   6  15  37         0.0000000101
      1   3  30  31         0.0000000101
      1   6  23  10        -0.0000000101
      3   1  31  30         0.0000000101
      6   1  10  23        -0.0000000101
      1   2  35   2        -0.0000000101
      2   1   2  35        -0.0000000101
      0   4  23  32         0.0000000101
      2   7  36  24         0.0000000101
      4   0  32  23         0.0000000101
      7   2  24  36         0.0000000101
      0   5  21   5        -0.0000000101
      5   0   5  21        -0.0000000101
      0   2  35  26        -0.0000000101
      2   0  26  35        -0.0000000101
      0   4  38  35         0.0000000101
      4   0  35  38         0.0000000101
      5   6  36   9        -0.0000000101
      6   5   9  36        -0.0000000101
      0   5   5  21         0.0000000101
      5   0  21   5         0.0000000101
      0   2  11  12         0.0000000101
      2   0  12  11         0.0000000101
      1   2   1  23        -0.0000000101
      2   1  23   1        -0.0000000101
      1   5   3   4         0.0000000101
      3   4  28  36        -0.0000000101
      4   3  36  28        -0.0000000101
      5   1   4   3         0.0000000101
      2   5  24  29        -0.0000000101
      5   2  29  24        -0.0000000101
      2   7   0  11        -0.0000000101
      7   2  11   0        -0.0000000101
      2   7  29  34        -0.0000000101
      7   2  34  29        -0.0000000101
      1   4  39  35         0.0000000101
      4   1  35  39         0.0000000101
      1   5  30  43         0.0000000101
      5   1  43  30         0.0000000101
      4   5  23   7         0.0000000101
      5   4   7  23         0.0000000101
      3   4  34  29         0.0000000101
      4   3  29  34         0.0000000101
      0   3  28  33         0.0000000101
      1   1  11  15        -0.0000000101
      1   1  15  11        -0.0000000101
      3   0  33  28         0.0000000101
      1   7   7  15         0.0000000101
      7   1  15   7         0.0000000101
      1   6   4   8         0.0000000101
      6   1   8   4         0.0000000101
      0   2  22  23         0.0000000101
      2   0  23  22         0.0000000101
      4   6  40  18        -0.0000000100
      6   4  18  40        -0.0000000100
      5   7  35  20         0.0000000100
      7   5  20  35         0.0000000100
      5   6   1  17        -0.0000000100
      6   5  17   1        -0.0000000100
      5   6  41  28         0.0000000100
      6   5  28  41         0.0000000100
      5   6  14   7        -0.0000000100
      6   5   7  14        -0.0000000100
      2   2   0   8         0.0000000100
      2   2   8   0         0.0000000100
      1   7  16  23         0.0000000100
      7   1  23  16         0.0000000100
      3   7  38  35         0.0000000100
      7   3  35  38         0.0000000100
      1   1   0  24        -0.0000000100
      1   1  24   0        -0.0000000100
      0   6  24  13        -0.0000000100
      6   0  13  24        -0.0000000100
      6   6   8  32         0.0000000100
      6   6  32   8         0.0000000100
      0   6  37   0        -0.0000000100
      2   7  20   1         0.0000000100
      6   0   0  37        -0.0000000100
      7   2   1  20         0.0000000100
      1   6   1  16        -0.0000000100
      6   1  16   1        -0.0000000100

    SCF energy       (wfn)                    =  -77.877820314125984
    Reference energy (file100)                =  -77.877820314126353

    Opposite-spin MP2 correlation energy      =   -0.254357176344684
    Same-spin MP2 correlation energy          =   -0.062006045997586
    MP2 correlation energy                    =   -0.316363222342270
      * MP2 total energy                      =  -78.194183536468628

    Opposite-spin CCSD correlation energy     =   -0.313389391817010
    Same-spin CCSD correlation energy         =   -0.052754817205283
    CCSD correlation energy                   =   -0.366144209022293
      * CCSD total energy                     =  -78.243964523148648


*** tstop() called on Berts-MacBook-Pro.local at Wed Dec  6 22:30:47 2017
Module time:
	user time   =     148.39 seconds =       2.47 minutes
	system time =      10.52 seconds =       0.18 minutes
	total time  =        159 seconds =       2.65 minutes
Total time:
	user time   =     208.67 seconds =       3.48 minutes
	system time =      12.32 seconds =       0.21 minutes
	total time  =        221 seconds =       3.68 minutes

*** Psi4 exiting successfully. Buy a developer a beer!
